v 0 eval {set sim_annotation {Clustering Method For WSn}}
s 1.000000000 _19_ AGT  --- 0 cbr 512 [0 0 0 0] [energy 99.999288] ------- [19:0 8:0 32 0] [0] 0 0
r 1.000000000 _19_ RTR  --- 0 cbr 512 [0 0 0 0] [energy 99.999288] ------- [19:0 8:0 32 0] [0] 0 0
s 1.000000000 _19_ RTR  --- 0 AODV 48 [0 0 0 0] [energy 99.999288] ------- [19:255 -1:255 30 0] [0x2 1 1 [8 0] [19 4]] (REQUEST)
r 1.003602107 _17_ RTR  --- 0 AODV 48 [0 ffffffff 13 800] [energy 99.999270] ------- [19:255 -1:255 30 0] [0x2 1 1 [8 0] [19 4]] (REQUEST)
r 1.003602170 _16_ RTR  --- 0 AODV 48 [0 ffffffff 13 800] [energy 99.999270] ------- [19:255 -1:255 30 0] [0x2 1 1 [8 0] [19 4]] (REQUEST)
r 1.003602200 _10_ RTR  --- 0 AODV 48 [0 ffffffff 13 800] [energy 99.999270] ------- [19:255 -1:255 30 0] [0x2 1 1 [8 0] [19 4]] (REQUEST)
r 1.003602259 _15_ RTR  --- 0 AODV 48 [0 ffffffff 13 800] [energy 99.999270] ------- [19:255 -1:255 30 0] [0x2 1 1 [8 0] [19 4]] (REQUEST)
r 1.003602260 _9_ RTR  --- 0 AODV 48 [0 ffffffff 13 800] [energy 99.999270] ------- [19:255 -1:255 30 0] [0x2 1 1 [8 0] [19 4]] (REQUEST)
r 1.003602333 _21_ RTR  --- 0 AODV 48 [0 ffffffff 13 800] [energy 99.999270] ------- [19:255 -1:255 30 0] [0x2 1 1 [8 0] [19 4]] (REQUEST)
r 1.003602344 _11_ RTR  --- 0 AODV 48 [0 ffffffff 13 800] [energy 99.999270] ------- [19:255 -1:255 30 0] [0x2 1 1 [8 0] [19 4]] (REQUEST)
r 1.003602389 _14_ RTR  --- 0 AODV 48 [0 ffffffff 13 800] [energy 99.999270] ------- [19:255 -1:255 30 0] [0x2 1 1 [8 0] [19 4]] (REQUEST)
r 1.003602400 _20_ RTR  --- 0 AODV 48 [0 ffffffff 13 800] [energy 99.999270] ------- [19:255 -1:255 30 0] [0x2 1 1 [8 0] [19 4]] (REQUEST)
r 1.003602403 _12_ RTR  --- 0 AODV 48 [0 ffffffff 13 800] [energy 99.999270] ------- [19:255 -1:255 30 0] [0x2 1 1 [8 0] [19 4]] (REQUEST)
r 1.003602417 _13_ RTR  --- 0 AODV 48 [0 ffffffff 13 800] [energy 99.999270] ------- [19:255 -1:255 30 0] [0x2 1 1 [8 0] [19 4]] (REQUEST)
r 1.003602521 _18_ RTR  --- 0 AODV 48 [0 ffffffff 13 800] [energy 99.999270] ------- [19:255 -1:255 30 0] [0x2 1 1 [8 0] [19 4]] (REQUEST)
r 1.003602566 _26_ RTR  --- 0 AODV 48 [0 ffffffff 13 800] [energy 99.999270] ------- [19:255 -1:255 30 0] [0x2 1 1 [8 0] [19 4]] (REQUEST)
r 1.003602573 _27_ RTR  --- 0 AODV 48 [0 ffffffff 13 800] [energy 99.999270] ------- [19:255 -1:255 30 0] [0x2 1 1 [8 0] [19 4]] (REQUEST)
r 1.003602583 _25_ RTR  --- 0 AODV 48 [0 ffffffff 13 800] [energy 99.999270] ------- [19:255 -1:255 30 0] [0x2 1 1 [8 0] [19 4]] (REQUEST)
r 1.003602667 _43_ RTR  --- 0 AODV 48 [0 ffffffff 13 800] [energy 99.999270] ------- [19:255 -1:255 30 0] [0x2 1 1 [8 0] [19 4]] (REQUEST)
r 1.003602684 _22_ RTR  --- 0 AODV 48 [0 ffffffff 13 800] [energy 99.999270] ------- [19:255 -1:255 30 0] [0x2 1 1 [8 0] [19 4]] (REQUEST)
r 1.003602690 _28_ RTR  --- 0 AODV 48 [0 ffffffff 13 800] [energy 99.999270] ------- [19:255 -1:255 30 0] [0x2 1 1 [8 0] [19 4]] (REQUEST)
r 1.003602696 _36_ RTR  --- 0 AODV 48 [0 ffffffff 13 800] [energy 99.999270] ------- [19:255 -1:255 30 0] [0x2 1 1 [8 0] [19 4]] (REQUEST)
r 1.003602698 _24_ RTR  --- 0 AODV 48 [0 ffffffff 13 800] [energy 99.999270] ------- [19:255 -1:255 30 0] [0x2 1 1 [8 0] [19 4]] (REQUEST)
r 1.003602753 _37_ RTR  --- 0 AODV 48 [0 ffffffff 13 800] [energy 99.999270] ------- [19:255 -1:255 30 0] [0x2 1 1 [8 0] [19 4]] (REQUEST)
r 1.003602777 _40_ RTR  --- 0 AODV 48 [0 ffffffff 13 800] [energy 99.999270] ------- [19:255 -1:255 30 0] [0x2 1 1 [8 0] [19 4]] (REQUEST)
r 1.003602802 _30_ RTR  --- 0 AODV 48 [0 ffffffff 13 800] [energy 99.999270] ------- [19:255 -1:255 30 0] [0x2 1 1 [8 0] [19 4]] (REQUEST)
r 1.003602807 _29_ RTR  --- 0 AODV 48 [0 ffffffff 13 800] [energy 99.999270] ------- [19:255 -1:255 30 0] [0x2 1 1 [8 0] [19 4]] (REQUEST)
r 1.003602814 _23_ RTR  --- 0 AODV 48 [0 ffffffff 13 800] [energy 99.999270] ------- [19:255 -1:255 30 0] [0x2 1 1 [8 0] [19 4]] (REQUEST)
r 1.003602821 _35_ RTR  --- 0 AODV 48 [0 ffffffff 13 800] [energy 99.999270] ------- [19:255 -1:255 30 0] [0x2 1 1 [8 0] [19 4]] (REQUEST)
s 1.003635836 _21_ RTR  --- 0 AODV 48 [0 ffffffff 13 800] [energy 99.999270] ------- [21:255 -1:255 29 0] [0x2 2 1 [8 0] [19 4]] (REQUEST)
s 1.003762668 _36_ RTR  --- 0 AODV 48 [0 ffffffff 13 800] [energy 99.999270] ------- [36:255 -1:255 29 0] [0x2 2 1 [8 0] [19 4]] (REQUEST)
s 1.003921935 _18_ RTR  --- 0 AODV 48 [0 ffffffff 13 800] [energy 99.999270] ------- [18:255 -1:255 29 0] [0x2 2 1 [8 0] [19 4]] (REQUEST)
s 1.003930124 _10_ RTR  --- 0 AODV 48 [0 ffffffff 13 800] [energy 99.999270] ------- [10:255 -1:255 29 0] [0x2 2 1 [8 0] [19 4]] (REQUEST)
s 1.004794573 _30_ RTR  --- 0 AODV 48 [0 ffffffff 13 800] [energy 99.999260] ------- [30:255 -1:255 29 0] [0x2 2 1 [8 0] [19 4]] (REQUEST)
s 1.005314607 _13_ RTR  --- 0 AODV 48 [0 ffffffff 13 800] [energy 99.999260] ------- [13:255 -1:255 29 0] [0x2 2 1 [8 0] [19 4]] (REQUEST)
s 1.005678841 _28_ RTR  --- 0 AODV 48 [0 ffffffff 13 800] [energy 99.999260] ------- [28:255 -1:255 29 0] [0x2 2 1 [8 0] [19 4]] (REQUEST)
s 1.005744334 _23_ RTR  --- 0 AODV 48 [0 ffffffff 13 800] [energy 99.999260] ------- [23:255 -1:255 29 0] [0x2 2 1 [8 0] [19 4]] (REQUEST)
s 1.006652150 _9_ RTR  --- 0 AODV 48 [0 ffffffff 13 800] [energy 99.999251] ------- [9:255 -1:255 29 0] [0x2 2 1 [8 0] [19 4]] (REQUEST)
s 1.006819692 _11_ RTR  --- 0 AODV 48 [0 ffffffff 13 800] [energy 99.999240] ------- [11:255 -1:255 29 0] [0x2 2 1 [8 0] [19 4]] (REQUEST)
r 1.006892281 _17_ RTR  --- 0 AODV 48 [0 ffffffff a 800] [energy 99.999240] ------- [10:255 -1:255 29 0] [0x2 2 1 [8 0] [19 4]] (REQUEST)
r 1.006892281 _11_ RTR  --- 0 AODV 48 [0 ffffffff a 800] [energy 99.999240] ------- [10:255 -1:255 29 0] [0x2 2 1 [8 0] [19 4]] (REQUEST)
r 1.006892290 _9_ RTR  --- 0 AODV 48 [0 ffffffff a 800] [energy 99.999240] ------- [10:255 -1:255 29 0] [0x2 2 1 [8 0] [19 4]] (REQUEST)
r 1.006892324 _19_ RTR  --- 0 AODV 48 [0 ffffffff a 800] [energy 99.999249] ------- [10:255 -1:255 29 0] [0x2 2 1 [8 0] [19 4]] (REQUEST)
r 1.006892324 _20_ RTR  --- 0 AODV 48 [0 ffffffff a 800] [energy 99.999240] ------- [10:255 -1:255 29 0] [0x2 2 1 [8 0] [19 4]] (REQUEST)
r 1.006892359 _16_ RTR  --- 0 AODV 48 [0 ffffffff a 800] [energy 99.999240] ------- [10:255 -1:255 29 0] [0x2 2 1 [8 0] [19 4]] (REQUEST)
r 1.006892359 _12_ RTR  --- 0 AODV 48 [0 ffffffff a 800] [energy 99.999240] ------- [10:255 -1:255 29 0] [0x2 2 1 [8 0] [19 4]] (REQUEST)
r 1.006892407 _15_ RTR  --- 0 AODV 48 [0 ffffffff a 800] [energy 99.999240] ------- [10:255 -1:255 29 0] [0x2 2 1 [8 0] [19 4]] (REQUEST)
r 1.006892407 _13_ RTR  --- 0 AODV 48 [0 ffffffff a 800] [energy 99.999240] ------- [10:255 -1:255 29 0] [0x2 2 1 [8 0] [19 4]] (REQUEST)
r 1.006892457 _14_ RTR  --- 0 AODV 48 [0 ffffffff a 800] [energy 99.999240] ------- [10:255 -1:255 29 0] [0x2 2 1 [8 0] [19 4]] (REQUEST)
r 1.006892512 _21_ RTR  --- 0 AODV 48 [0 ffffffff a 800] [energy 99.999240] ------- [10:255 -1:255 29 0] [0x2 2 1 [8 0] [19 4]] (REQUEST)
r 1.006892512 _18_ RTR  --- 0 AODV 48 [0 ffffffff a 800] [energy 99.999240] ------- [10:255 -1:255 29 0] [0x2 2 1 [8 0] [19 4]] (REQUEST)
r 1.006892790 _36_ RTR  --- 0 AODV 48 [0 ffffffff a 800] [energy 99.999240] ------- [10:255 -1:255 29 0] [0x2 2 1 [8 0] [19 4]] (REQUEST)
r 1.006892820 _43_ RTR  --- 0 AODV 48 [0 ffffffff a 800] [energy 99.999240] ------- [10:255 -1:255 29 0] [0x2 2 1 [8 0] [19 4]] (REQUEST)
r 1.006892820 _40_ RTR  --- 0 AODV 48 [0 ffffffff a 800] [energy 99.999240] ------- [10:255 -1:255 29 0] [0x2 2 1 [8 0] [19 4]] (REQUEST)
r 1.006892831 _25_ RTR  --- 0 AODV 48 [0 ffffffff a 800] [energy 99.999240] ------- [10:255 -1:255 29 0] [0x2 2 1 [8 0] [19 4]] (REQUEST)
r 1.006892831 _7_ RTR  --- 0 AODV 48 [0 ffffffff a 800] [energy 99.999248] ------- [10:255 -1:255 29 0] [0x2 2 1 [8 0] [19 4]] (REQUEST)
r 1.006892840 _26_ RTR  --- 0 AODV 48 [0 ffffffff a 800] [energy 99.999240] ------- [10:255 -1:255 29 0] [0x2 2 1 [8 0] [19 4]] (REQUEST)
r 1.006892840 _6_ RTR  --- 0 AODV 48 [0 ffffffff a 800] [energy 99.999248] ------- [10:255 -1:255 29 0] [0x2 2 1 [8 0] [19 4]] (REQUEST)
r 1.006892869 _27_ RTR  --- 0 AODV 48 [0 ffffffff a 800] [energy 99.999240] ------- [10:255 -1:255 29 0] [0x2 2 1 [8 0] [19 4]] (REQUEST)
r 1.006892869 _5_ RTR  --- 0 AODV 48 [0 ffffffff a 800] [energy 99.999248] ------- [10:255 -1:255 29 0] [0x2 2 1 [8 0] [19 4]] (REQUEST)
r 1.006892885 _37_ RTR  --- 0 AODV 48 [0 ffffffff a 800] [energy 99.999240] ------- [10:255 -1:255 29 0] [0x2 2 1 [8 0] [19 4]] (REQUEST)
r 1.006892885 _35_ RTR  --- 0 AODV 48 [0 ffffffff a 800] [energy 99.999240] ------- [10:255 -1:255 29 0] [0x2 2 1 [8 0] [19 4]] (REQUEST)
r 1.006892949 _24_ RTR  --- 0 AODV 48 [0 ffffffff a 800] [energy 99.999240] ------- [10:255 -1:255 29 0] [0x2 2 1 [8 0] [19 4]] (REQUEST)
r 1.006892949 _8_ RTR  --- 0 AODV 48 [0 ffffffff a 800] [energy 99.999248] ------- [10:255 -1:255 29 0] [0x2 2 1 [8 0] [19 4]] (REQUEST)
s 1.006892949 _8_ RTR  --- 0 AODV 44 [0 0 0 0] [energy 99.999248] ------- [8:255 19:255 30 10] [0x4 1 [8 4] 10.000000] (REPLY)
r 1.006892957 _22_ RTR  --- 0 AODV 48 [0 ffffffff a 800] [energy 99.999240] ------- [10:255 -1:255 29 0] [0x2 2 1 [8 0] [19 4]] (REQUEST)
r 1.006892957 _31_ RTR  --- 0 AODV 48 [0 ffffffff a 800] [energy 99.999248] ------- [10:255 -1:255 29 0] [0x2 2 1 [8 0] [19 4]] (REQUEST)
r 1.006892957 _0_ RTR  --- 0 AODV 48 [0 ffffffff a 800] [energy 99.999248] ------- [10:255 -1:255 29 0] [0x2 2 1 [8 0] [19 4]] (REQUEST)
s 1.006914898 _40_ RTR  --- 0 AODV 48 [0 ffffffff 13 800] [energy 99.999240] ------- [40:255 -1:255 29 0] [0x2 2 1 [8 0] [19 4]] (REQUEST)
s 1.007254732 _15_ RTR  --- 0 AODV 48 [0 ffffffff 13 800] [energy 99.999240] ------- [15:255 -1:255 29 0] [0x2 2 1 [8 0] [19 4]] (REQUEST)
s 1.007479848 _5_ RTR  --- 0 AODV 48 [0 ffffffff a 800] [energy 99.999248] ------- [5:255 -1:255 28 0] [0x2 3 1 [8 0] [19 4]] (REQUEST)
s 1.007906869 _35_ RTR  --- 0 AODV 48 [0 ffffffff 13 800] [energy 99.999240] ------- [35:255 -1:255 29 0] [0x2 2 1 [8 0] [19 4]] (REQUEST)
s 1.007974975 _37_ RTR  --- 0 AODV 48 [0 ffffffff 13 800] [energy 99.999240] ------- [37:255 -1:255 29 0] [0x2 2 1 [8 0] [19 4]] (REQUEST)
s 1.008001842 _24_ RTR  --- 0 AODV 48 [0 ffffffff 13 800] [energy 99.999240] ------- [24:255 -1:255 29 0] [0x2 2 1 [8 0] [19 4]] (REQUEST)
s 1.008115298 _22_ RTR  --- 0 AODV 48 [0 ffffffff 13 800] [energy 99.999240] ------- [22:255 -1:255 29 0] [0x2 2 1 [8 0] [19 4]] (REQUEST)
s 1.008810135 _43_ RTR  --- 0 AODV 48 [0 ffffffff 13 800] [energy 99.999231] ------- [43:255 -1:255 29 0] [0x2 2 1 [8 0] [19 4]] (REQUEST)
s 1.009161138 _7_ RTR  --- 0 AODV 48 [0 ffffffff a 800] [energy 99.999238] ------- [7:255 -1:255 28 0] [0x2 3 1 [8 0] [19 4]] (REQUEST)
r 1.009280959 _27_ RTR  --- 0 AODV 48 [0 ffffffff 1c 800] [energy 99.999223] ------- [28:255 -1:255 29 0] [0x2 2 1 [8 0] [19 4]] (REQUEST)
s 1.009756140 _27_ RTR  --- 0 AODV 48 [0 ffffffff 13 800] [energy 99.999223] ------- [27:255 -1:255 29 0] [0x2 2 1 [8 0] [19 4]] (REQUEST)
s 1.010292570 _31_ RTR  --- 0 AODV 48 [0 ffffffff a 800] [energy 99.999230] ------- [31:255 -1:255 28 0] [0x2 3 1 [8 0] [19 4]] (REQUEST)
s 1.010559005 _17_ RTR  --- 0 AODV 48 [0 ffffffff 13 800] [energy 99.999223] ------- [17:255 -1:255 29 0] [0x2 2 1 [8 0] [19 4]] (REQUEST)
s 1.011154921 _26_ RTR  --- 0 AODV 48 [0 ffffffff 13 800] [energy 99.999223] ------- [26:255 -1:255 29 0] [0x2 2 1 [8 0] [19 4]] (REQUEST)
s 1.011498867 _25_ RTR  --- 0 AODV 48 [0 ffffffff 13 800] [energy 99.999212] ------- [25:255 -1:255 29 0] [0x2 2 1 [8 0] [19 4]] (REQUEST)
s 1.011660721 _12_ RTR  --- 0 AODV 48 [0 ffffffff 13 800] [energy 99.999207] ------- [12:255 -1:255 29 0] [0x2 2 1 [8 0] [19 4]] (REQUEST)
r 1.011721966 _6_ RTR  --- 0 AODV 48 [0 ffffffff 5 800] [energy 99.999215] ------- [5:255 -1:255 28 0] [0x2 3 1 [8 0] [19 4]] (REQUEST)
r 1.011721966 _4_ RTR  --- 0 AODV 48 [0 ffffffff 5 800] [energy 99.999222] ------- [5:255 -1:255 28 0] [0x2 3 1 [8 0] [19 4]] (REQUEST)
r 1.011722015 _0_ RTR  --- 0 AODV 48 [0 ffffffff 5 800] [energy 99.999215] ------- [5:255 -1:255 28 0] [0x2 3 1 [8 0] [19 4]] (REQUEST)
r 1.011722084 _7_ RTR  --- 0 AODV 48 [0 ffffffff 5 800] [energy 99.999216] ------- [5:255 -1:255 28 0] [0x2 3 1 [8 0] [19 4]] (REQUEST)
r 1.011722084 _3_ RTR  --- 0 AODV 48 [0 ffffffff 5 800] [energy 99.999222] ------- [5:255 -1:255 28 0] [0x2 3 1 [8 0] [19 4]] (REQUEST)
r 1.011722112 _8_ RTR  --- 0 AODV 48 [0 ffffffff 5 800] [energy 99.999215] ------- [5:255 -1:255 28 0] [0x2 3 1 [8 0] [19 4]] (REQUEST)
r 1.011722112 _2_ RTR  --- 0 AODV 48 [0 ffffffff 5 800] [energy 99.999222] ------- [5:255 -1:255 28 0] [0x2 3 1 [8 0] [19 4]] (REQUEST)
r 1.011722181 _1_ RTR  --- 0 AODV 48 [0 ffffffff 5 800] [energy 99.999222] ------- [5:255 -1:255 28 0] [0x2 3 1 [8 0] [19 4]] (REQUEST)
r 1.011722422 _40_ RTR  --- 0 AODV 48 [0 ffffffff 5 800] [energy 99.999207] ------- [5:255 -1:255 28 0] [0x2 3 1 [8 0] [19 4]] (REQUEST)
r 1.011722422 _20_ RTR  --- 0 AODV 48 [0 ffffffff 5 800] [energy 99.999207] ------- [5:255 -1:255 28 0] [0x2 3 1 [8 0] [19 4]] (REQUEST)
r 1.011722525 _35_ RTR  --- 0 AODV 48 [0 ffffffff 5 800] [energy 99.999199] ------- [5:255 -1:255 28 0] [0x2 3 1 [8 0] [19 4]] (REQUEST)
r 1.011722525 _11_ RTR  --- 0 AODV 48 [0 ffffffff 5 800] [energy 99.999207] ------- [5:255 -1:255 28 0] [0x2 3 1 [8 0] [19 4]] (REQUEST)
r 1.011722555 _34_ RTR  --- 0 AODV 48 [0 ffffffff 5 800] [energy 99.999222] ------- [5:255 -1:255 28 0] [0x2 3 1 [8 0] [19 4]] (REQUEST)
r 1.011722555 _12_ RTR  --- 0 AODV 48 [0 ffffffff 5 800] [energy 99.999207] ------- [5:255 -1:255 28 0] [0x2 3 1 [8 0] [19 4]] (REQUEST)
r 1.011722593 _36_ RTR  --- 0 AODV 48 [0 ffffffff 5 800] [energy 99.999199] ------- [5:255 -1:255 28 0] [0x2 3 1 [8 0] [19 4]] (REQUEST)
r 1.011722593 _10_ RTR  --- 0 AODV 48 [0 ffffffff 5 800] [energy 99.999216] ------- [5:255 -1:255 28 0] [0x2 3 1 [8 0] [19 4]] (REQUEST)
r 1.011722638 _33_ RTR  --- 0 AODV 48 [0 ffffffff 5 800] [energy 99.999222] ------- [5:255 -1:255 28 0] [0x2 3 1 [8 0] [19 4]] (REQUEST)
r 1.011722638 _13_ RTR  --- 0 AODV 48 [0 ffffffff 5 800] [energy 99.999207] ------- [5:255 -1:255 28 0] [0x2 3 1 [8 0] [19 4]] (REQUEST)
r 1.011722662 _42_ RTR  --- 0 AODV 48 [0 ffffffff 5 800] [energy 99.999222] ------- [5:255 -1:255 28 0] [0x2 3 1 [8 0] [19 4]] (REQUEST)
r 1.011722662 _18_ RTR  --- 0 AODV 48 [0 ffffffff 5 800] [energy 99.999207] ------- [5:255 -1:255 28 0] [0x2 3 1 [8 0] [19 4]] (REQUEST)
r 1.011722681 _31_ RTR  --- 0 AODV 48 [0 ffffffff 5 800] [energy 99.999207] ------- [5:255 -1:255 28 0] [0x2 3 1 [8 0] [19 4]] (REQUEST)
r 1.011722681 _9_ RTR  --- 0 AODV 48 [0 ffffffff 5 800] [energy 99.999208] ------- [5:255 -1:255 28 0] [0x2 3 1 [8 0] [19 4]] (REQUEST)
s 1.012275550 _3_ RTR  --- 0 AODV 48 [0 ffffffff 5 800] [energy 99.999222] ------- [3:255 -1:255 27 0] [0x2 4 1 [8 0] [19 4]] (REQUEST)
s 1.012402356 _20_ RTR  --- 0 AODV 48 [0 ffffffff 13 800] [energy 99.999207] ------- [20:255 -1:255 29 0] [0x2 2 1 [8 0] [19 4]] (REQUEST)
s 1.012414964 _14_ RTR  --- 0 AODV 48 [0 ffffffff 13 800] [energy 99.999215] ------- [14:255 -1:255 29 0] [0x2 2 1 [8 0] [19 4]] (REQUEST)
s 1.012596953 _29_ RTR  --- 0 AODV 48 [0 ffffffff 13 800] [energy 99.999215] ------- [29:255 -1:255 29 0] [0x2 2 1 [8 0] [19 4]] (REQUEST)
s 1.012721562 _16_ RTR  --- 0 AODV 48 [0 ffffffff 13 800] [energy 99.999207] ------- [16:255 -1:255 29 0] [0x2 2 1 [8 0] [19 4]] (REQUEST)
s 1.013865340 _4_ RTR  --- 0 AODV 48 [0 ffffffff 5 800] [energy 99.999204] ------- [4:255 -1:255 27 0] [0x2 4 1 [8 0] [19 4]] (REQUEST)
r 1.014171255 _6_ RTR  --- 0 AODV 48 [0 ffffffff 7 800] [energy 99.999194] ------- [7:255 -1:255 28 0] [0x2 3 1 [8 0] [19 4]] (REQUEST)
r 1.014171255 _8_ RTR  --- 0 AODV 48 [0 ffffffff 7 800] [energy 99.999194] ------- [7:255 -1:255 28 0] [0x2 3 1 [8 0] [19 4]] (REQUEST)
r 1.014171304 _0_ RTR  --- 0 AODV 48 [0 ffffffff 7 800] [energy 99.999194] ------- [7:255 -1:255 28 0] [0x2 3 1 [8 0] [19 4]] (REQUEST)
r 1.014171373 _1_ RTR  --- 0 AODV 48 [0 ffffffff 7 800] [energy 99.999201] ------- [7:255 -1:255 28 0] [0x2 3 1 [8 0] [19 4]] (REQUEST)
r 1.014171373 _5_ RTR  --- 0 AODV 48 [0 ffffffff 7 800] [energy 99.999202] ------- [7:255 -1:255 28 0] [0x2 3 1 [8 0] [19 4]] (REQUEST)
r 1.014171401 _2_ RTR  --- 0 AODV 48 [0 ffffffff 7 800] [energy 99.999201] ------- [7:255 -1:255 28 0] [0x2 3 1 [8 0] [19 4]] (REQUEST)
r 1.014171401 _4_ RTR  --- 0 AODV 48 [0 ffffffff 7 800] [energy 99.999201] ------- [7:255 -1:255 28 0] [0x2 3 1 [8 0] [19 4]] (REQUEST)
r 1.014171471 _3_ RTR  --- 0 AODV 48 [0 ffffffff 7 800] [energy 99.999201] ------- [7:255 -1:255 28 0] [0x2 3 1 [8 0] [19 4]] (REQUEST)
r 1.014171481 _40_ RTR  --- 0 AODV 48 [0 ffffffff 7 800] [energy 99.999186] ------- [7:255 -1:255 28 0] [0x2 3 1 [8 0] [19 4]] (REQUEST)
r 1.014171581 _35_ RTR  --- 0 AODV 48 [0 ffffffff 7 800] [energy 99.999179] ------- [7:255 -1:255 28 0] [0x2 3 1 [8 0] [19 4]] (REQUEST)
r 1.014171609 _34_ RTR  --- 0 AODV 48 [0 ffffffff 7 800] [energy 99.999201] ------- [7:255 -1:255 28 0] [0x2 3 1 [8 0] [19 4]] (REQUEST)
s 1.014833337 _0_ RTR  --- 0 AODV 48 [0 ffffffff a 800] [energy 99.999194] ------- [0:255 -1:255 28 0] [0x2 3 1 [8 0] [19 4]] (REQUEST)
s 1.015195253 _6_ RTR  --- 0 AODV 48 [0 ffffffff a 800] [energy 99.999194] ------- [6:255 -1:255 28 0] [0x2 3 1 [8 0] [19 4]] (REQUEST)
s 1.016026252 _33_ RTR  --- 0 AODV 48 [0 ffffffff 5 800] [energy 99.999201] ------- [33:255 -1:255 27 0] [0x2 4 1 [8 0] [19 4]] (REQUEST)
r 1.016529095 _16_ RTR  --- 0 AODV 48 [0 ffffffff 11 800] [energy 99.999163] ------- [17:255 -1:255 29 0] [0x2 2 1 [8 0] [19 4]] (REQUEST)
s 1.018806076 _34_ RTR  --- 0 AODV 48 [0 ffffffff 5 800] [energy 99.999167] ------- [34:255 -1:255 27 0] [0x2 4 1 [8 0] [19 4]] (REQUEST)
r 1.018883454 _8_ RTR  --- 0 AODV 48 [0 ffffffff 0 800] [energy 99.999152] ------- [0:255 -1:255 28 0] [0x2 3 1 [8 0] [19 4]] (REQUEST)
r 1.018883454 _6_ RTR  --- 0 AODV 48 [0 ffffffff 0 800] [energy 99.999152] ------- [0:255 -1:255 28 0] [0x2 3 1 [8 0] [19 4]] (REQUEST)
r 1.018883454 _2_ RTR  --- 0 AODV 48 [0 ffffffff 0 800] [energy 99.999160] ------- [0:255 -1:255 28 0] [0x2 3 1 [8 0] [19 4]] (REQUEST)
r 1.018883454 _4_ RTR  --- 0 AODV 48 [0 ffffffff 0 800] [energy 99.999160] ------- [0:255 -1:255 28 0] [0x2 3 1 [8 0] [19 4]] (REQUEST)
r 1.018883503 _7_ RTR  --- 0 AODV 48 [0 ffffffff 0 800] [energy 99.999161] ------- [0:255 -1:255 28 0] [0x2 3 1 [8 0] [19 4]] (REQUEST)
r 1.018883503 _1_ RTR  --- 0 AODV 48 [0 ffffffff 0 800] [energy 99.999160] ------- [0:255 -1:255 28 0] [0x2 3 1 [8 0] [19 4]] (REQUEST)
r 1.018883503 _5_ RTR  --- 0 AODV 48 [0 ffffffff 0 800] [energy 99.999161] ------- [0:255 -1:255 28 0] [0x2 3 1 [8 0] [19 4]] (REQUEST)
r 1.018883503 _3_ RTR  --- 0 AODV 48 [0 ffffffff 0 800] [energy 99.999160] ------- [0:255 -1:255 28 0] [0x2 3 1 [8 0] [19 4]] (REQUEST)
r 1.019025121 _15_ RTR  --- 0 AODV 48 [0 ffffffff e 800] [energy 99.999161] ------- [14:255 -1:255 29 0] [0x2 2 1 [8 0] [19 4]] (REQUEST)
r 1.019025121 _13_ RTR  --- 0 AODV 48 [0 ffffffff e 800] [energy 99.999146] ------- [14:255 -1:255 29 0] [0x2 2 1 [8 0] [19 4]] (REQUEST)
r 1.019025130 _9_ RTR  --- 0 AODV 48 [0 ffffffff e 800] [energy 99.999153] ------- [14:255 -1:255 29 0] [0x2 2 1 [8 0] [19 4]] (REQUEST)
r 1.019025164 _21_ RTR  --- 0 AODV 48 [0 ffffffff e 800] [energy 99.999153] ------- [14:255 -1:255 29 0] [0x2 2 1 [8 0] [19 4]] (REQUEST)
r 1.019025164 _18_ RTR  --- 0 AODV 48 [0 ffffffff e 800] [energy 99.999145] ------- [14:255 -1:255 29 0] [0x2 2 1 [8 0] [19 4]] (REQUEST)
r 1.019025199 _16_ RTR  --- 0 AODV 48 [0 ffffffff e 800] [energy 99.999145] ------- [14:255 -1:255 29 0] [0x2 2 1 [8 0] [19 4]] (REQUEST)
r 1.019025199 _12_ RTR  --- 0 AODV 48 [0 ffffffff e 800] [energy 99.999145] ------- [14:255 -1:255 29 0] [0x2 2 1 [8 0] [19 4]] (REQUEST)
r 1.019025247 _17_ RTR  --- 0 AODV 48 [0 ffffffff e 800] [energy 99.999153] ------- [14:255 -1:255 29 0] [0x2 2 1 [8 0] [19 4]] (REQUEST)
r 1.019025247 _11_ RTR  --- 0 AODV 48 [0 ffffffff e 800] [energy 99.999153] ------- [14:255 -1:255 29 0] [0x2 2 1 [8 0] [19 4]] (REQUEST)
r 1.019025297 _10_ RTR  --- 0 AODV 48 [0 ffffffff e 800] [energy 99.999153] ------- [14:255 -1:255 29 0] [0x2 2 1 [8 0] [19 4]] (REQUEST)
r 1.019045039 _25_ RTR  --- 0 AODV 48 [0 ffffffff 1a 800] [energy 99.999146] ------- [26:255 -1:255 29 0] [0x2 2 1 [8 0] [19 4]] (REQUEST)
s 1.019944291 _1_ RTR  --- 0 AODV 48 [0 ffffffff 5 800] [energy 99.999160] ------- [1:255 -1:255 27 0] [0x2 4 1 [8 0] [19 4]] (REQUEST)
s 1.020023116 _42_ RTR  --- 0 AODV 48 [0 ffffffff 5 800] [energy 99.999167] ------- [42:255 -1:255 27 0] [0x2 4 1 [8 0] [19 4]] (REQUEST)
r 1.021204697 _12_ RTR  --- 0 AODV 48 [0 ffffffff d 800] [energy 99.999127] ------- [13:255 -1:255 29 0] [0x2 2 1 [8 0] [19 4]] (REQUEST)
r 1.021204714 _18_ RTR  --- 0 AODV 48 [0 ffffffff d 800] [energy 99.999127] ------- [13:255 -1:255 29 0] [0x2 2 1 [8 0] [19 4]] (REQUEST)
r 1.021204773 _11_ RTR  --- 0 AODV 48 [0 ffffffff d 800] [energy 99.999136] ------- [13:255 -1:255 29 0] [0x2 2 1 [8 0] [19 4]] (REQUEST)
r 1.021204866 _20_ RTR  --- 0 AODV 48 [0 ffffffff d 800] [energy 99.999136] ------- [13:255 -1:255 29 0] [0x2 2 1 [8 0] [19 4]] (REQUEST)
s 1.021260596 _2_ RTR  --- 0 AODV 48 [0 ffffffff 5 800] [energy 99.999150] ------- [2:255 -1:255 27 0] [0x2 4 1 [8 0] [19 4]] (REQUEST)
r 1.023548242 _37_ RTR  --- 0 AODV 48 [0 ffffffff 2b 800] [energy 99.999113] ------- [43:255 -1:255 29 0] [0x2 2 1 [8 0] [19 4]] (REQUEST)
r 1.023548305 _38_ RTR  --- 0 AODV 48 [0 ffffffff 2b 800] [energy 99.999136] ------- [43:255 -1:255 29 0] [0x2 2 1 [8 0] [19 4]] (REQUEST)
r 1.023548335 _36_ RTR  --- 0 AODV 48 [0 ffffffff 2b 800] [energy 99.999106] ------- [43:255 -1:255 29 0] [0x2 2 1 [8 0] [19 4]] (REQUEST)
r 1.023548394 _39_ RTR  --- 0 AODV 48 [0 ffffffff 2b 800] [energy 99.999136] ------- [43:255 -1:255 29 0] [0x2 2 1 [8 0] [19 4]] (REQUEST)
r 1.023548396 _31_ RTR  --- 0 AODV 48 [0 ffffffff 2b 800] [energy 99.999122] ------- [43:255 -1:255 29 0] [0x2 2 1 [8 0] [19 4]] (REQUEST)
r 1.023548469 _41_ RTR  --- 0 AODV 48 [0 ffffffff 2b 800] [energy 99.999143] ------- [43:255 -1:255 29 0] [0x2 2 1 [8 0] [19 4]] (REQUEST)
r 1.023548479 _25_ RTR  --- 0 AODV 48 [0 ffffffff 2b 800] [energy 99.999114] ------- [43:255 -1:255 29 0] [0x2 2 1 [8 0] [19 4]] (REQUEST)
r 1.023548479 _35_ RTR  --- 0 AODV 48 [0 ffffffff 2b 800] [energy 99.999104] ------- [43:255 -1:255 29 0] [0x2 2 1 [8 0] [19 4]] (REQUEST)
r 1.023548524 _32_ RTR  --- 0 AODV 48 [0 ffffffff 2b 800] [energy 99.999136] ------- [43:255 -1:255 29 0] [0x2 2 1 [8 0] [19 4]] (REQUEST)
r 1.023548528 _24_ RTR  --- 0 AODV 48 [0 ffffffff 2b 800] [energy 99.999121] ------- [43:255 -1:255 29 0] [0x2 2 1 [8 0] [19 4]] (REQUEST)
r 1.023548535 _40_ RTR  --- 0 AODV 48 [0 ffffffff 2b 800] [energy 99.999112] ------- [43:255 -1:255 29 0] [0x2 2 1 [8 0] [19 4]] (REQUEST)
r 1.023548538 _34_ RTR  --- 0 AODV 48 [0 ffffffff 2b 800] [energy 99.999135] ------- [43:255 -1:255 29 0] [0x2 2 1 [8 0] [19 4]] (REQUEST)
r 1.023548552 _33_ RTR  --- 0 AODV 48 [0 ffffffff 2b 800] [energy 99.999135] ------- [43:255 -1:255 29 0] [0x2 2 1 [8 0] [19 4]] (REQUEST)
r 1.023548593 _26_ RTR  --- 0 AODV 48 [0 ffffffff 2b 800] [energy 99.999121] ------- [43:255 -1:255 29 0] [0x2 2 1 [8 0] [19 4]] (REQUEST)
r 1.023548602 _23_ RTR  --- 0 AODV 48 [0 ffffffff 2b 800] [energy 99.999143] ------- [43:255 -1:255 29 0] [0x2 2 1 [8 0] [19 4]] (REQUEST)
r 1.023548631 _22_ RTR  --- 0 AODV 48 [0 ffffffff 2b 800] [energy 99.999121] ------- [43:255 -1:255 29 0] [0x2 2 1 [8 0] [19 4]] (REQUEST)
r 1.023548656 _42_ RTR  --- 0 AODV 48 [0 ffffffff 2b 800] [energy 99.999135] ------- [43:255 -1:255 29 0] [0x2 2 1 [8 0] [19 4]] (REQUEST)
r 1.023548692 _30_ RTR  --- 0 AODV 48 [0 ffffffff 2b 800] [energy 99.999135] ------- [43:255 -1:255 29 0] [0x2 2 1 [8 0] [19 4]] (REQUEST)
r 1.023548709 _27_ RTR  --- 0 AODV 48 [0 ffffffff 2b 800] [energy 99.999105] ------- [43:255 -1:255 29 0] [0x2 2 1 [8 0] [19 4]] (REQUEST)
r 1.023548736 _44_ RTR  --- 0 AODV 48 [0 ffffffff 2b 800] [energy 99.999158] ------- [43:255 -1:255 29 0] [0x2 2 1 [8 0] [19 4]] (REQUEST)
r 1.023548740 _28_ RTR  --- 0 AODV 48 [0 ffffffff 2b 800] [energy 99.999136] ------- [43:255 -1:255 29 0] [0x2 2 1 [8 0] [19 4]] (REQUEST)
r 1.023548790 _29_ RTR  --- 0 AODV 48 [0 ffffffff 2b 800] [energy 99.999143] ------- [43:255 -1:255 29 0] [0x2 2 1 [8 0] [19 4]] (REQUEST)
r 1.023548802 _19_ RTR  --- 0 AODV 48 [0 ffffffff 2b 800] [energy 99.999113] ------- [43:255 -1:255 29 0] [0x2 2 1 [8 0] [19 4]] (REQUEST)
r 1.023548831 _10_ RTR  --- 0 AODV 48 [0 ffffffff 2b 800] [energy 99.999113] ------- [43:255 -1:255 29 0] [0x2 2 1 [8 0] [19 4]] (REQUEST)
r 1.023548831 _45_ RTR  --- 0 AODV 48 [0 ffffffff 2b 800] [energy 99.999158] ------- [43:255 -1:255 29 0] [0x2 2 1 [8 0] [19 4]] (REQUEST)
r 1.023548855 _7_ RTR  --- 0 AODV 48 [0 ffffffff 2b 800] [energy 99.999128] ------- [43:255 -1:255 29 0] [0x2 2 1 [8 0] [19 4]] (REQUEST)
r 1.023548888 _17_ RTR  --- 0 AODV 48 [0 ffffffff 2b 800] [energy 99.999113] ------- [43:255 -1:255 29 0] [0x2 2 1 [8 0] [19 4]] (REQUEST)
r 1.023548913 _20_ RTR  --- 0 AODV 48 [0 ffffffff 2b 800] [energy 99.999113] ------- [43:255 -1:255 29 0] [0x2 2 1 [8 0] [19 4]] (REQUEST)
r 1.023548923 _8_ RTR  --- 0 AODV 48 [0 ffffffff 2b 800] [energy 99.999120] ------- [43:255 -1:255 29 0] [0x2 2 1 [8 0] [19 4]] (REQUEST)
r 1.023548956 _11_ RTR  --- 0 AODV 48 [0 ffffffff 2b 800] [energy 99.999113] ------- [43:255 -1:255 29 0] [0x2 2 1 [8 0] [19 4]] (REQUEST)
r 1.023548958 _6_ RTR  --- 0 AODV 48 [0 ffffffff 2b 800] [energy 99.999112] ------- [43:255 -1:255 29 0] [0x2 2 1 [8 0] [19 4]] (REQUEST)
s 1.023895855 _41_ RTR  --- 0 AODV 48 [0 ffffffff 2b 800] [energy 99.999143] ------- [41:255 -1:255 28 0] [0x2 3 1 [8 0] [19 4]] (REQUEST)
s 1.024204533 _32_ RTR  --- 0 AODV 48 [0 ffffffff 2b 800] [energy 99.999136] ------- [32:255 -1:255 28 0] [0x2 3 1 [8 0] [19 4]] (REQUEST)
s 1.024364690 _45_ RTR  --- 0 AODV 48 [0 ffffffff 2b 800] [energy 99.999158] ------- [45:255 -1:255 28 0] [0x2 3 1 [8 0] [19 4]] (REQUEST)
r 1.025724985 _26_ RTR  --- 0 AODV 48 [0 ffffffff 19 800] [energy 99.999100] ------- [25:255 -1:255 29 0] [0x2 2 1 [8 0] [19 4]] (REQUEST)
r 1.025724985 _24_ RTR  --- 0 AODV 48 [0 ffffffff 19 800] [energy 99.999101] ------- [25:255 -1:255 29 0] [0x2 2 1 [8 0] [19 4]] (REQUEST)
r 1.025725033 _22_ RTR  --- 0 AODV 48 [0 ffffffff 19 800] [energy 99.999100] ------- [25:255 -1:255 29 0] [0x2 2 1 [8 0] [19 4]] (REQUEST)
r 1.025725103 _27_ RTR  --- 0 AODV 48 [0 ffffffff 19 800] [energy 99.999085] ------- [25:255 -1:255 29 0] [0x2 2 1 [8 0] [19 4]] (REQUEST)
r 1.025725103 _23_ RTR  --- 0 AODV 48 [0 ffffffff 19 800] [energy 99.999123] ------- [25:255 -1:255 29 0] [0x2 2 1 [8 0] [19 4]] (REQUEST)
r 1.025725130 _30_ RTR  --- 0 AODV 48 [0 ffffffff 19 800] [energy 99.999114] ------- [25:255 -1:255 29 0] [0x2 2 1 [8 0] [19 4]] (REQUEST)
r 1.025725130 _28_ RTR  --- 0 AODV 48 [0 ffffffff 19 800] [energy 99.999115] ------- [25:255 -1:255 29 0] [0x2 2 1 [8 0] [19 4]] (REQUEST)
r 1.025725200 _29_ RTR  --- 0 AODV 48 [0 ffffffff 19 800] [energy 99.999123] ------- [25:255 -1:255 29 0] [0x2 2 1 [8 0] [19 4]] (REQUEST)
s 1.026061294 _39_ RTR  --- 0 AODV 48 [0 ffffffff 2b 800] [energy 99.999115] ------- [39:255 -1:255 28 0] [0x2 3 1 [8 0] [19 4]] (REQUEST)
r 1.028115960 _23_ RTR  --- 0 AODV 48 [0 ffffffff 18 800] [energy 99.999105] ------- [24:255 -1:255 29 0] [0x2 2 1 [8 0] [19 4]] (REQUEST)
r 1.028115960 _22_ RTR  --- 0 AODV 48 [0 ffffffff 18 800] [energy 99.999082] ------- [24:255 -1:255 29 0] [0x2 2 1 [8 0] [19 4]] (REQUEST)
r 1.028115960 _25_ RTR  --- 0 AODV 48 [0 ffffffff 18 800] [energy 99.999083] ------- [24:255 -1:255 29 0] [0x2 2 1 [8 0] [19 4]] (REQUEST)
r 1.028116009 _30_ RTR  --- 0 AODV 48 [0 ffffffff 18 800] [energy 99.999097] ------- [24:255 -1:255 29 0] [0x2 2 1 [8 0] [19 4]] (REQUEST)
r 1.028116009 _26_ RTR  --- 0 AODV 48 [0 ffffffff 18 800] [energy 99.999082] ------- [24:255 -1:255 29 0] [0x2 2 1 [8 0] [19 4]] (REQUEST)
r 1.028116078 _28_ RTR  --- 0 AODV 48 [0 ffffffff 18 800] [energy 99.999098] ------- [24:255 -1:255 29 0] [0x2 2 1 [8 0] [19 4]] (REQUEST)
r 1.028116106 _27_ RTR  --- 0 AODV 48 [0 ffffffff 18 800] [energy 99.999067] ------- [24:255 -1:255 29 0] [0x2 2 1 [8 0] [19 4]] (REQUEST)
r 1.028116106 _29_ RTR  --- 0 AODV 48 [0 ffffffff 18 800] [energy 99.999105] ------- [24:255 -1:255 29 0] [0x2 2 1 [8 0] [19 4]] (REQUEST)
r 1.028116234 _43_ RTR  --- 0 AODV 48 [0 ffffffff 18 800] [energy 99.999083] ------- [24:255 -1:255 29 0] [0x2 2 1 [8 0] [19 4]] (REQUEST)
r 1.028116322 _37_ RTR  --- 0 AODV 48 [0 ffffffff 18 800] [energy 99.999075] ------- [24:255 -1:255 29 0] [0x2 2 1 [8 0] [19 4]] (REQUEST)
r 1.028116328 _38_ RTR  --- 0 AODV 48 [0 ffffffff 18 800] [energy 99.999098] ------- [24:255 -1:255 29 0] [0x2 2 1 [8 0] [19 4]] (REQUEST)
r 1.028116402 _39_ RTR  --- 0 AODV 48 [0 ffffffff 18 800] [energy 99.999098] ------- [24:255 -1:255 29 0] [0x2 2 1 [8 0] [19 4]] (REQUEST)
r 1.028116408 _41_ RTR  --- 0 AODV 48 [0 ffffffff 18 800] [energy 99.999105] ------- [24:255 -1:255 29 0] [0x2 2 1 [8 0] [19 4]] (REQUEST)
r 1.028116477 _31_ RTR  --- 0 AODV 48 [0 ffffffff 18 800] [energy 99.999091] ------- [24:255 -1:255 29 0] [0x2 2 1 [8 0] [19 4]] (REQUEST)
r 1.028116559 _32_ RTR  --- 0 AODV 48 [0 ffffffff 18 800] [energy 99.999098] ------- [24:255 -1:255 29 0] [0x2 2 1 [8 0] [19 4]] (REQUEST)
r 1.028196042 _13_ RTR  --- 0 AODV 48 [0 ffffffff 12 800] [energy 99.999087] ------- [18:255 -1:255 29 0] [0x2 2 1 [8 0] [19 4]] (REQUEST)
r 1.028196105 _12_ RTR  --- 0 AODV 48 [0 ffffffff 12 800] [energy 99.999078] ------- [18:255 -1:255 29 0] [0x2 2 1 [8 0] [19 4]] (REQUEST)
r 1.028196135 _14_ RTR  --- 0 AODV 48 [0 ffffffff 12 800] [energy 99.999094] ------- [18:255 -1:255 29 0] [0x2 2 1 [8 0] [19 4]] (REQUEST)
r 1.028196194 _11_ RTR  --- 0 AODV 48 [0 ffffffff 12 800] [energy 99.999072] ------- [18:255 -1:255 29 0] [0x2 2 1 [8 0] [19 4]] (REQUEST)
r 1.028196195 _9_ RTR  --- 0 AODV 48 [0 ffffffff 12 800] [energy 99.999079] ------- [18:255 -1:255 29 0] [0x2 2 1 [8 0] [19 4]] (REQUEST)