n -t * -s 0  -x 485.52529900000002 -y 12.719421000000001 -Z 0 -z 10.000000  -v circle -c green
n -t * -s 1  -x 522.21820100000002 -y 0 -Z 0 -z 10.000000  -v circle -c green
n -t * -s 2  -x 562.02062999999998 -y -5.6574669999999996 -Z 0 -z 10.000000  -v circle -c green
n -t * -s 3  -x 599.34362799999997 -y -1.983274 -Z 0 -z 10.000000  -v circle -c green
n -t * -s 4  -x 639.53118900000004 -y -1.4738929999999999 -Z 0 -z 10.000000  -v circle -c green
n -t * -s 5  -x 679.70538299999998 -y 13.536232999999999 -Z 0 -z 10.000000  -v circle -c green
n -t * -s 6  -x 578.09277299999997 -y 300.21606400000002 -Z 0 -z 10.000000  -v circle -c green
n -t * -s 7  -x 578.09277299999997 -y 400.731674 -Z 0 -z 10.000000  -v circle -c green
n -t * -s 8  -x 485.215576 -y 140.731674 -Z 0 -z 10.000000  -v circle -c green
n -t * -s 9  -x 650.21557600000006 -y 140.731674 -Z 0 -z 10.000000  -v circle -c green
V -t * -v 1.0a5 -a 0
W -t * -x 1500 -y 1500
A -t * -n 1 -p 0 -o 0xffffffff -c 31 -a 1
A -t * -h 1 -m 2147483647 -s 0
n -t 0 -s 0 -S DLABEL -l "WC_Node" -L ""
n -t 0 -s 0 -S COLOR -c RED -o black -i RED -I black
n -t 0 -s 1 -S DLABEL -l "WC_Node" -L ""
n -t 0 -s 1 -S COLOR -c RED -o black -i RED -I black
n -t 0 -s 2 -S DLABEL -l "WC_Node" -L ""
n -t 0 -s 2 -S COLOR -c RED -o black -i RED -I black
n -t 0 -s 3 -S DLABEL -l "WC_Node" -L ""
n -t 0 -s 3 -S COLOR -c RED -o black -i RED -I black
n -t 0 -s 4 -S DLABEL -l "WC_Node" -L ""
n -t 0 -s 4 -S COLOR -c RED -o black -i RED -I black
n -t 0 -s 5 -S DLABEL -l "WC_Node" -L ""
n -t 0 -s 5 -S COLOR -c RED -o black -i RED -I black
n -t 0 -s 6 -S DLABEL -l "Source" -L ""
n -t 0 -s 6 -S COLOR -c pink -o black -i pink -I black
n -t 0 -s 7 -S DLABEL -l "Repeater" -L ""
n -t 0 -s 7 -S COLOR -c blue -o black -i blue -I black
n -t 0 -s 8 -S DLABEL -l "AP_1" -L ""
n -t 0 -s 8 -S COLOR -c gold -o black -i gold -I black
n -t 0 -s 9 -S DLABEL -l "AP_2" -L ""
n -t 0 -s 9 -S COLOR -c gold -o black -i gold -I black
n -t 1.000000 -s 0 -x 485.525299 -y 12.719421 -U 29.516359 -V -5.365122 -T 2.184372
n -t 1.000000 -s 1 -x 522.218201 -y 0.000000 -U -29.973379 -V 1.263536 -T 7.914296
n -t 1.000000 -s 2 -x 562.020630 -y -5.657467 -U -29.242761 -V 6.697830 -T 3.830713
n -t 1.000000 -s 3 -x 599.343628 -y -1.983274 -U -49.963708 -V 1.904695 -T 6.291439
n -t 1.000000 -s 4 -x 639.531189 -y -1.473893 -U -29.977443 -V 1.163153 -T 2.986619
n -t 1.000000 -s 5 -x 679.705383 -y 13.536233 -U -29.999896 -V 0.079164 -T 18.490244
n -t 1 -s 0 -S COLOR -c green -o RED -i green -I RED
+ -t 1.000000000 -s 0 -d -1 -p tcp -e 40 -c 2 -a 0 -i 0 -k AGT 
- -t 1.000000000 -s 0 -d -1 -p tcp -e 40 -c 2 -a 0 -i 0 -k AGT
h -t 1.000000000 -s 0 -d -1 -p tcp -e 40 -c 2 -a 0 -i 0 -k AGT
+ -t 1.000665000 -s 0 -d -1 -p AODV -e 55 -c 2 -a 0 -i 0 -k MAC 
- -t 1.000665000 -s 0 -d -1 -p AODV -e 55 -c 2 -a 0 -i 0 -k MAC
h -t 1.000665000 -s 0 -d -1 -p AODV -e 55 -c 2 -a 0 -i 0 -k MAC
r -t 1.003257129 -s 1 -d -1 -p AODV -e 48 -c 2 -a 0 -i 0 -k MAC
r -t 1.003257262 -s 2 -d -1 -p AODV -e 48 -c 2 -a 0 -i 0 -k MAC
r -t 1.003257382 -s 3 -d -1 -p AODV -e 48 -c 2 -a 0 -i 0 -k MAC
r -t 1.003257427 -s 8 -d -1 -p AODV -e 48 -c 2 -a 0 -i 0 -k MAC
r -t 1.003257515 -s 4 -d -1 -p AODV -e 48 -c 2 -a 0 -i 0 -k MAC
r -t 1.003257647 -s 5 -d -1 -p AODV -e 48 -c 2 -a 0 -i 0 -k MAC
r -t 1.003257695 -s 9 -d -1 -p AODV -e 48 -c 2 -a 0 -i 0 -k MAC
+ -t 1.006999683 -s 8 -d -1 -p AODV -e 55 -c 2 -a 0 -i 0 -k MAC 
- -t 1.006999683 -s 8 -d -1 -p AODV -e 55 -c 2 -a 0 -i 0 -k MAC
h -t 1.006999683 -s 8 -d -1 -p AODV -e 55 -c 2 -a 0 -i 0 -k MAC
r -t 1.009592110 -s 0 -d -1 -p AODV -e 48 -c 2 -a 0 -i 0 -k MAC
r -t 1.009592168 -s 1 -d -1 -p AODV -e 48 -c 2 -a 0 -i 0 -k MAC
r -t 1.009592233 -s 9 -d -1 -p AODV -e 48 -c 2 -a 0 -i 0 -k MAC
r -t 1.009592234 -s 2 -d -1 -p AODV -e 48 -c 2 -a 0 -i 0 -k MAC
r -t 1.009592291 -s 3 -d -1 -p AODV -e 48 -c 2 -a 0 -i 0 -k MAC
r -t 1.009592298 -s 6 -d -1 -p AODV -e 48 -c 2 -a 0 -i 0 -k MAC
r -t 1.009592382 -s 4 -d -1 -p AODV -e 48 -c 2 -a 0 -i 0 -k MAC
r -t 1.009592457 -s 5 -d -1 -p AODV -e 48 -c 2 -a 0 -i 0 -k MAC
+ -t 1.010401137 -s 5 -d -1 -p AODV -e 55 -c 2 -a 0 -i 0 -k MAC 
- -t 1.010401137 -s 5 -d -1 -p AODV -e 55 -c 2 -a 0 -i 0 -k MAC
h -t 1.010401137 -s 5 -d -1 -p AODV -e 55 -c 2 -a 0 -i 0 -k MAC
+ -t 1.012567802 -s 1 -d -1 -p AODV -e 55 -c 2 -a 0 -i 0 -k MAC 
- -t 1.012567802 -s 1 -d -1 -p AODV -e 55 -c 2 -a 0 -i 0 -k MAC
h -t 1.012567802 -s 1 -d -1 -p AODV -e 55 -c 2 -a 0 -i 0 -k MAC
+ -t 1.012665514 -s 2 -d -1 -p AODV -e 55 -c 2 -a 0 -i 0 -k MAC 
- -t 1.012665514 -s 2 -d -1 -p AODV -e 55 -c 2 -a 0 -i 0 -k MAC
h -t 1.012665514 -s 2 -d -1 -p AODV -e 55 -c 2 -a 0 -i 0 -k MAC
r -t 1.012993280 -s 4 -d -1 -p AODV -e 48 -c 2 -a 0 -i 0 -k MAC
r -t 1.012993410 -s 3 -d -1 -p AODV -e 48 -c 2 -a 0 -i 0 -k MAC
r -t 1.012993534 -s 2 -d -1 -p AODV -e 48 -c 2 -a 0 -i 0 -k MAC
r -t 1.012993572 -s 9 -d -1 -p AODV -e 48 -c 2 -a 0 -i 0 -k MAC
r -t 1.012993663 -s 1 -d -1 -p AODV -e 48 -c 2 -a 0 -i 0 -k MAC
r -t 1.012993782 -s 0 -d -1 -p AODV -e 48 -c 2 -a 0 -i 0 -k MAC
r -t 1.012993910 -s 8 -d -1 -p AODV -e 48 -c 2 -a 0 -i 0 -k MAC
d -t 1.014519929 -s 0 -d -1 -p AODV -e 55 -c 2 -a 0 -i 0 -k MAC
d -t 1.014520287 -s 8 -d -1 -p AODV -e 55 -c 2 -a 0 -i 0 -k MAC
d -t 1.014617638 -s 3 -d -1 -p AODV -e 55 -c 2 -a 0 -i 0 -k MAC
d -t 1.014617773 -s 4 -d -1 -p AODV -e 55 -c 2 -a 0 -i 0 -k MAC
d -t 1.014617912 -s 5 -d -1 -p AODV -e 55 -c 2 -a 0 -i 0 -k MAC
d -t 1.014618084 -s 9 -d -1 -p AODV -e 55 -c 2 -a 0 -i 0 -k MAC
+ -t 1.015284373 -s 6 -d -1 -p AODV -e 55 -c 2 -a 0 -i 0 -k MAC 
- -t 1.015284373 -s 6 -d -1 -p AODV -e 55 -c 2 -a 0 -i 0 -k MAC
h -t 1.015284373 -s 6 -d -1 -p AODV -e 55 -c 2 -a 0 -i 0 -k MAC
r -t 1.017876709 -s 7 -d -1 -p AODV -e 48 -c 2 -a 0 -i 0 -k MAC
r -t 1.017876957 -s 9 -d -1 -p AODV -e 48 -c 2 -a 0 -i 0 -k MAC
r -t 1.017876989 -s 8 -d -1 -p AODV -e 48 -c 2 -a 0 -i 0 -k MAC
+ -t 1.018666581 -s 4 -d -1 -p AODV -e 55 -c 2 -a 0 -i 0 -k MAC 
- -t 1.018666581 -s 4 -d -1 -p AODV -e 55 -c 2 -a 0 -i 0 -k MAC
h -t 1.018666581 -s 4 -d -1 -p AODV -e 55 -c 2 -a 0 -i 0 -k MAC
r -t 1.021258716 -s 3 -d -1 -p AODV -e 48 -c 2 -a 0 -i 0 -k MAC
r -t 1.021258724 -s 5 -d -1 -p AODV -e 48 -c 2 -a 0 -i 0 -k MAC
r -t 1.021258840 -s 2 -d -1 -p AODV -e 48 -c 2 -a 0 -i 0 -k MAC
r -t 1.021258972 -s 1 -d -1 -p AODV -e 48 -c 2 -a 0 -i 0 -k MAC
r -t 1.021259056 -s 9 -d -1 -p AODV -e 48 -c 2 -a 0 -i 0 -k MAC
r -t 1.021259093 -s 0 -d -1 -p AODV -e 48 -c 2 -a 0 -i 0 -k MAC
r -t 1.021259279 -s 8 -d -1 -p AODV -e 48 -c 2 -a 0 -i 0 -k MAC
+ -t 1.021746014 -s 9 -d -1 -p AODV -e 55 -c 2 -a 0 -i 0 -k MAC 
- -t 1.021746014 -s 9 -d -1 -p AODV -e 55 -c 2 -a 0 -i 0 -k MAC
h -t 1.021746014 -s 9 -d -1 -p AODV -e 55 -c 2 -a 0 -i 0 -k MAC
r -t 1.024338449 -s 5 -d -1 -p AODV -e 48 -c 2 -a 0 -i 0 -k MAC
r -t 1.024338490 -s 4 -d -1 -p AODV -e 48 -c 2 -a 0 -i 0 -k MAC
r -t 1.024338520 -s 3 -d -1 -p AODV -e 48 -c 2 -a 0 -i 0 -k MAC
r -t 1.024338564 -s 8 -d -1 -p AODV -e 48 -c 2 -a 0 -i 0 -k MAC
r -t 1.024338585 -s 2 -d -1 -p AODV -e 48 -c 2 -a 0 -i 0 -k MAC
r -t 1.024338598 -s 6 -d -1 -p AODV -e 48 -c 2 -a 0 -i 0 -k MAC
r -t 1.024338650 -s 1 -d -1 -p AODV -e 48 -c 2 -a 0 -i 0 -k MAC
r -t 1.024338708 -s 0 -d -1 -p AODV -e 48 -c 2 -a 0 -i 0 -k MAC
+ -t 1.024870977 -s 3 -d -1 -p AODV -e 55 -c 2 -a 0 -i 0 -k MAC 
- -t 1.024870977 -s 3 -d -1 -p AODV -e 55 -c 2 -a 0 -i 0 -k MAC
h -t 1.024870977 -s 3 -d -1 -p AODV -e 55 -c 2 -a 0 -i 0 -k MAC
r -t 1.027463100 -s 2 -d -1 -p AODV -e 48 -c 2 -a 0 -i 0 -k MAC
r -t 1.027463113 -s 4 -d -1 -p AODV -e 48 -c 2 -a 0 -i 0 -k MAC
r -t 1.027463232 -s 1 -d -1 -p AODV -e 48 -c 2 -a 0 -i 0 -k MAC
r -t 1.027463251 -s 5 -d -1 -p AODV -e 48 -c 2 -a 0 -i 0 -k MAC
r -t 1.027463353 -s 0 -d -1 -p AODV -e 48 -c 2 -a 0 -i 0 -k MAC
r -t 1.027463483 -s 9 -d -1 -p AODV -e 48 -c 2 -a 0 -i 0 -k MAC
r -t 1.027463583 -s 8 -d -1 -p AODV -e 48 -c 2 -a 0 -i 0 -k MAC
+ -t 1.028978709 -s 7 -d -1 -p ARP -e 35 -c 2 -a 0 -i 0 -k MAC 
- -t 1.028978709 -s 7 -d -1 -p ARP -e 35 -c 2 -a 0 -i 0 -k MAC
h -t 1.028978709 -s 7 -d -1 -p ARP -e 35 -c 2 -a 0 -i 0 -k MAC
r -t 1.030931044 -s 6 -d -1 -p ARP -e 28 -c 2 -a 0 -i 0 -k MAC
+ -t 1.032856044 -s 6 -d -1 -p ARP -e 35 -c 2 -a 0 -i 0 -k MAC 
- -t 1.032856044 -s 6 -d -1 -p ARP -e 35 -c 2 -a 0 -i 0 -k MAC
h -t 1.032856044 -s 6 -d -1 -p ARP -e 35 -c 2 -a 0 -i 0 -k MAC
+ -t 1.034360379 -s 7 -d 6 -p ACK -e 5 -c 2 -a 0 -i 0 -k MAC 
- -t 1.034360379 -s 7 -d 6 -p ACK -e 5 -c 2 -a 0 -i 0 -k MAC
h -t 1.034360379 -s 7 -d 6 -p ACK -e 5 -c 2 -a 0 -i 0 -k MAC
r -t 1.034712714 -s 6 -d 6 -p ACK -e 5 -c 2 -a 0 -i 0 -k MAC
r -t 1.035352379 -s 7 -d -1 -p ARP -e 28 -c 2 -a 0 -i 0 -k MAC
+ -t 1.037277379 -s 7 -d 6 -p AODV -e 51 -c 2 -a 0 -i 0 -k MAC 
- -t 1.037277379 -s 7 -d 6 -p AODV -e 51 -c 2 -a 0 -i 0 -k MAC
h -t 1.037277379 -s 7 -d 6 -p AODV -e 51 -c 2 -a 0 -i 0 -k MAC
+ -t 1.039293714 -s 6 -d 7 -p ACK -e 5 -c 2 -a 0 -i 0 -k MAC 
- -t 1.039293714 -s 6 -d 7 -p ACK -e 5 -c 2 -a 0 -i 0 -k MAC
h -t 1.039293714 -s 6 -d 7 -p ACK -e 5 -c 2 -a 0 -i 0 -k MAC
r -t 1.039646049 -s 7 -d 7 -p ACK -e 5 -c 2 -a 0 -i 0 -k MAC
r -t 1.040285714 -s 6 -d 6 -p AODV -e 44 -c 2 -a 0 -i 0 -k MAC
+ -t 1.042875714 -s 6 -d -1 -p ARP -e 35 -c 2 -a 0 -i 0 -k MAC 
- -t 1.042875714 -s 6 -d -1 -p ARP -e 35 -c 2 -a 0 -i 0 -k MAC
h -t 1.042875714 -s 6 -d -1 -p ARP -e 35 -c 2 -a 0 -i 0 -k MAC
r -t 1.044828049 -s 7 -d -1 -p ARP -e 28 -c 2 -a 0 -i 0 -k MAC
r -t 1.044828297 -s 9 -d -1 -p ARP -e 28 -c 2 -a 0 -i 0 -k MAC
r -t 1.044828329 -s 8 -d -1 -p ARP -e 28 -c 2 -a 0 -i 0 -k MAC
+ -t 1.045153329 -s 8 -d -1 -p ARP -e 35 -c 2 -a 0 -i 0 -k MAC 
- -t 1.045153329 -s 8 -d -1 -p ARP -e 35 -c 2 -a 0 -i 0 -k MAC
h -t 1.045153329 -s 8 -d -1 -p ARP -e 35 -c 2 -a 0 -i 0 -k MAC
+ -t 1.046657944 -s 6 -d 8 -p ACK -e 5 -c 2 -a 0 -i 0 -k MAC 
- -t 1.046657944 -s 6 -d 8 -p ACK -e 5 -c 2 -a 0 -i 0 -k MAC
h -t 1.046657944 -s 6 -d 8 -p ACK -e 5 -c 2 -a 0 -i 0 -k MAC
r -t 1.047010559 -s 8 -d 8 -p ACK -e 5 -c 2 -a 0 -i 0 -k MAC
r -t 1.047649944 -s 6 -d -1 -p ARP -e 28 -c 2 -a 0 -i 0 -k MAC
+ -t 1.049894944 -s 6 -d 8 -p AODV -e 51 -c 2 -a 0 -i 0 -k MAC 
- -t 1.049894944 -s 6 -d 8 -p AODV -e 51 -c 2 -a 0 -i 0 -k MAC
h -t 1.049894944 -s 6 -d 8 -p AODV -e 51 -c 2 -a 0 -i 0 -k MAC
+ -t 1.051911559 -s 8 -d 6 -p ACK -e 5 -c 2 -a 0 -i 0 -k MAC 
- -t 1.051911559 -s 8 -d 6 -p ACK -e 5 -c 2 -a 0 -i 0 -k MAC
h -t 1.051911559 -s 8 -d 6 -p ACK -e 5 -c 2 -a 0 -i 0 -k MAC
r -t 1.052264174 -s 6 -d 6 -p ACK -e 5 -c 2 -a 0 -i 0 -k MAC
r -t 1.052903559 -s 8 -d 8 -p AODV -e 44 -c 2 -a 0 -i 0 -k MAC
+ -t 1.054213559 -s 8 -d -1 -p ARP -e 35 -c 2 -a 0 -i 0 -k MAC 
- -t 1.054213559 -s 8 -d -1 -p ARP -e 35 -c 2 -a 0 -i 0 -k MAC
h -t 1.054213559 -s 8 -d -1 -p ARP -e 35 -c 2 -a 0 -i 0 -k MAC
r -t 1.056165987 -s 0 -d -1 -p ARP -e 28 -c 2 -a 0 -i 0 -k MAC
r -t 1.056166043 -s 1 -d -1 -p ARP -e 28 -c 2 -a 0 -i 0 -k MAC
r -t 1.056166107 -s 2 -d -1 -p ARP -e 28 -c 2 -a 0 -i 0 -k MAC
r -t 1.056166109 -s 9 -d -1 -p ARP -e 28 -c 2 -a 0 -i 0 -k MAC
r -t 1.056166163 -s 3 -d -1 -p ARP -e 28 -c 2 -a 0 -i 0 -k MAC
r -t 1.056166174 -s 6 -d -1 -p ARP -e 28 -c 2 -a 0 -i 0 -k MAC
r -t 1.056166255 -s 4 -d -1 -p ARP -e 28 -c 2 -a 0 -i 0 -k MAC
r -t 1.056166329 -s 5 -d -1 -p ARP -e 28 -c 2 -a 0 -i 0 -k MAC
+ -t 1.057770987 -s 0 -d -1 -p ARP -e 35 -c 2 -a 0 -i 0 -k MAC 
- -t 1.057770987 -s 0 -d -1 -p ARP -e 35 -c 2 -a 0 -i 0 -k MAC
h -t 1.057770987 -s 0 -d -1 -p ARP -e 35 -c 2 -a 0 -i 0 -k MAC
+ -t 1.059275415 -s 8 -d 0 -p ACK -e 5 -c 2 -a 0 -i 0 -k MAC 
- -t 1.059275415 -s 8 -d 0 -p ACK -e 5 -c 2 -a 0 -i 0 -k MAC
h -t 1.059275415 -s 8 -d 0 -p ACK -e 5 -c 2 -a 0 -i 0 -k MAC
r -t 1.059627843 -s 0 -d 0 -p ACK -e 5 -c 2 -a 0 -i 0 -k MAC
r -t 1.060267415 -s 8 -d -1 -p ARP -e 28 -c 2 -a 0 -i 0 -k MAC
+ -t 1.060912415 -s 8 -d 0 -p AODV -e 51 -c 2 -a 0 -i 0 -k MAC 
- -t 1.060912415 -s 8 -d 0 -p AODV -e 51 -c 2 -a 0 -i 0 -k MAC
h -t 1.060912415 -s 8 -d 0 -p AODV -e 51 -c 2 -a 0 -i 0 -k MAC
+ -t 1.062928843 -s 0 -d 8 -p ACK -e 5 -c 2 -a 0 -i 0 -k MAC 
- -t 1.062928843 -s 0 -d 8 -p ACK -e 5 -c 2 -a 0 -i 0 -k MAC
h -t 1.062928843 -s 0 -d 8 -p ACK -e 5 -c 2 -a 0 -i 0 -k MAC
r -t 1.063281271 -s 8 -d 8 -p ACK -e 5 -c 2 -a 0 -i 0 -k MAC
r -t 1.063920843 -s 0 -d 0 -p AODV -e 44 -c 2 -a 0 -i 0 -k MAC
+ -t 1.065890843 -s 0 -d 8 -p tcp -e 67 -c 2 -a 0 -i 0 -k MAC 
- -t 1.065890843 -s 0 -d 8 -p tcp -e 67 -c 2 -a 0 -i 0 -k MAC
h -t 1.065890843 -s 0 -d 8 -p tcp -e 67 -c 2 -a 0 -i 0 -k MAC
+ -t 1.068419271 -s 8 -d 0 -p ACK -e 5 -c 2 -a 0 -i 0 -k MAC 
- -t 1.068419271 -s 8 -d 0 -p ACK -e 5 -c 2 -a 0 -i 0 -k MAC
h -t 1.068419271 -s 8 -d 0 -p ACK -e 5 -c 2 -a 0 -i 0 -k MAC
r -t 1.068771699 -s 0 -d 0 -p ACK -e 5 -c 2 -a 0 -i 0 -k MAC
r -t 1.069411271 -s 8 -d 8 -p tcp -e 60 -c 2 -a 0 -i 0 -k MAC
+ -t 1.071701271 -s 8 -d 6 -p tcp -e 67 -c 2 -a 0 -i 0 -k MAC 
- -t 1.071701271 -s 8 -d 6 -p tcp -e 67 -c 2 -a 0 -i 0 -k MAC
h -t 1.071701271 -s 8 -d 6 -p tcp -e 67 -c 2 -a 0 -i 0 -k MAC
+ -t 1.074229886 -s 6 -d 8 -p ACK -e 5 -c 2 -a 0 -i 0 -k MAC 
- -t 1.074229886 -s 6 -d 8 -p ACK -e 5 -c 2 -a 0 -i 0 -k MAC
h -t 1.074229886 -s 6 -d 8 -p ACK -e 5 -c 2 -a 0 -i 0 -k MAC
r -t 1.074582501 -s 8 -d 8 -p ACK -e 5 -c 2 -a 0 -i 0 -k MAC
r -t 1.075221886 -s 6 -d 6 -p tcp -e 60 -c 2 -a 0 -i 0 -k MAC
+ -t 1.076551886 -s 6 -d 7 -p tcp -e 67 -c 2 -a 0 -i 0 -k MAC 
- -t 1.076551886 -s 6 -d 7 -p tcp -e 67 -c 2 -a 0 -i 0 -k MAC
h -t 1.076551886 -s 6 -d 7 -p tcp -e 67 -c 2 -a 0 -i 0 -k MAC
+ -t 1.079080221 -s 7 -d 6 -p ACK -e 5 -c 2 -a 0 -i 0 -k MAC 
- -t 1.079080221 -s 7 -d 6 -p ACK -e 5 -c 2 -a 0 -i 0 -k MAC
h -t 1.079080221 -s 7 -d 6 -p ACK -e 5 -c 2 -a 0 -i 0 -k MAC
r -t 1.079432556 -s 6 -d 6 -p ACK -e 5 -c 2 -a 0 -i 0 -k MAC
r -t 1.080072221 -s 7 -d 7 -p tcp -e 60 -c 2 -a 0 -i 0 -k MAC
r -t 1.080097221 -s 7 -d 7 -p tcp -e 60 -c 2 -a 0 -i 0 -k AGT
+ -t 1.080097221 -s 7 -d -1 -p ack -e 40 -c 2 -a 0 -i 1 -k AGT 
- -t 1.080097221 -s 7 -d -1 -p ack -e 40 -c 2 -a 0 -i 1 -k AGT
h -t 1.080097221 -s 7 -d -1 -p ack -e 40 -c 2 -a 0 -i 1 -k AGT
+ -t 1.081082221 -s 7 -d 6 -p ack -e 67 -c 2 -a 0 -i 1 -k MAC 
- -t 1.081082221 -s 7 -d 6 -p ack -e 67 -c 2 -a 0 -i 1 -k MAC
h -t 1.081082221 -s 7 -d 6 -p ack -e 67 -c 2 -a 0 -i 1 -k MAC
+ -t 1.083610556 -s 6 -d 7 -p ACK -e 5 -c 2 -a 0 -i 1 -k MAC 
- -t 1.083610556 -s 6 -d 7 -p ACK -e 5 -c 2 -a 0 -i 1 -k MAC
h -t 1.083610556 -s 6 -d 7 -p ACK -e 5 -c 2 -a 0 -i 1 -k MAC
r -t 1.083962891 -s 7 -d 7 -p ACK -e 5 -c 2 -a 0 -i 1 -k MAC
r -t 1.084602556 -s 6 -d 6 -p ack -e 60 -c 2 -a 0 -i 1 -k MAC
+ -t 1.086892556 -s 6 -d 8 -p ack -e 67 -c 2 -a 0 -i 1 -k MAC 
- -t 1.086892556 -s 6 -d 8 -p ack -e 67 -c 2 -a 0 -i 1 -k MAC
h -t 1.086892556 -s 6 -d 8 -p ack -e 67 -c 2 -a 0 -i 1 -k MAC
+ -t 1.089421171 -s 8 -d 6 -p ACK -e 5 -c 2 -a 0 -i 1 -k MAC 
- -t 1.089421171 -s 8 -d 6 -p ACK -e 5 -c 2 -a 0 -i 1 -k MAC
h -t 1.089421171 -s 8 -d 6 -p ACK -e 5 -c 2 -a 0 -i 1 -k MAC
r -t 1.089773786 -s 6 -d 6 -p ACK -e 5 -c 2 -a 0 -i 1 -k MAC
r -t 1.090413171 -s 8 -d 8 -p ack -e 60 -c 2 -a 0 -i 1 -k MAC
+ -t 1.093023171 -s 8 -d 0 -p ack -e 67 -c 2 -a 0 -i 1 -k MAC 
- -t 1.093023171 -s 8 -d 0 -p ack -e 67 -c 2 -a 0 -i 1 -k MAC
h -t 1.093023171 -s 8 -d 0 -p ack -e 67 -c 2 -a 0 -i 1 -k MAC
+ -t 1.095551600 -s 0 -d 8 -p ACK -e 5 -c 2 -a 0 -i 1 -k MAC 
- -t 1.095551600 -s 0 -d 8 -p ACK -e 5 -c 2 -a 0 -i 1 -k MAC
h -t 1.095551600 -s 0 -d 8 -p ACK -e 5 -c 2 -a 0 -i 1 -k MAC
r -t 1.095904028 -s 8 -d 8 -p ACK -e 5 -c 2 -a 0 -i 1 -k MAC
r -t 1.096543600 -s 0 -d 0 -p ack -e 60 -c 2 -a 0 -i 1 -k MAC
r -t 1.096568600 -s 0 -d 0 -p ack -e 60 -c 2 -a 0 -i 1 -k AGT
+ -t 1.096568600 -s 0 -d -1 -p tcp -e 592 -c 2 -a 0 -i 2 -k AGT 
- -t 1.096568600 -s 0 -d -1 -p tcp -e 592 -c 2 -a 0 -i 2 -k AGT
h -t 1.096568600 -s 0 -d -1 -p tcp -e 592 -c 2 -a 0 -i 2 -k AGT
+ -t 1.096568600 -s 0 -d -1 -p tcp -e 592 -c 2 -a 0 -i 3 -k AGT 
- -t 1.096568600 -s 0 -d -1 -p tcp -e 592 -c 2 -a 0 -i 3 -k AGT
h -t 1.096568600 -s 0 -d -1 -p tcp -e 592 -c 2 -a 0 -i 3 -k AGT
+ -t 1.099153600 -s 0 -d 8 -p tcp -e 107 -c 2 -a 0 -i 2 -k MAC 
- -t 1.099153600 -s 0 -d 8 -p tcp -e 107 -c 2 -a 0 -i 2 -k MAC
h -t 1.099153600 -s 0 -d 8 -p tcp -e 107 -c 2 -a 0 -i 2 -k MAC
+ -t 1.102962028 -s 8 -d 0 -p ACK -e 5 -c 2 -a 0 -i 2 -k MAC 
- -t 1.102962028 -s 8 -d 0 -p ACK -e 5 -c 2 -a 0 -i 2 -k MAC
h -t 1.102962028 -s 8 -d 0 -p ACK -e 5 -c 2 -a 0 -i 2 -k MAC
r -t 1.103314457 -s 0 -d 0 -p ACK -e 5 -c 2 -a 0 -i 2 -k MAC
r -t 1.103954028 -s 8 -d 8 -p tcp -e 100 -c 2 -a 0 -i 2 -k MAC
+ -t 1.105234457 -s 0 -d 8 -p tcp -e 107 -c 2 -a 0 -i 3 -k MAC 
- -t 1.105234457 -s 0 -d 8 -p tcp -e 107 -c 2 -a 0 -i 3 -k MAC
h -t 1.105234457 -s 0 -d 8 -p tcp -e 107 -c 2 -a 0 -i 3 -k MAC
+ -t 1.109042886 -s 8 -d 0 -p ACK -e 5 -c 2 -a 0 -i 3 -k MAC 
- -t 1.109042886 -s 8 -d 0 -p ACK -e 5 -c 2 -a 0 -i 3 -k MAC
h -t 1.109042886 -s 8 -d 0 -p ACK -e 5 -c 2 -a 0 -i 3 -k MAC
r -t 1.109395314 -s 0 -d 0 -p ACK -e 5 -c 2 -a 0 -i 3 -k MAC
r -t 1.110034886 -s 8 -d 8 -p tcp -e 100 -c 2 -a 0 -i 3 -k MAC
+ -t 1.111954886 -s 8 -d 6 -p tcp -e 107 -c 2 -a 0 -i 2 -k MAC 
- -t 1.111954886 -s 8 -d 6 -p tcp -e 107 -c 2 -a 0 -i 2 -k MAC
h -t 1.111954886 -s 8 -d 6 -p tcp -e 107 -c 2 -a 0 -i 2 -k MAC
+ -t 1.115763501 -s 6 -d 8 -p ACK -e 5 -c 2 -a 0 -i 2 -k MAC 
- -t 1.115763501 -s 6 -d 8 -p ACK -e 5 -c 2 -a 0 -i 2 -k MAC
h -t 1.115763501 -s 6 -d 8 -p ACK -e 5 -c 2 -a 0 -i 2 -k MAC
r -t 1.116116116 -s 8 -d 8 -p ACK -e 5 -c 2 -a 0 -i 2 -k MAC
r -t 1.116755501 -s 6 -d 6 -p tcp -e 100 -c 2 -a 0 -i 2 -k MAC
+ -t 1.116756116 -s 8 -d 6 -p tcp -e 107 -c 2 -a 0 -i 3 -k MAC 
- -t 1.116756116 -s 8 -d 6 -p tcp -e 107 -c 2 -a 0 -i 3 -k MAC
h -t 1.116756116 -s 8 -d 6 -p tcp -e 107 -c 2 -a 0 -i 3 -k MAC
+ -t 1.120564731 -s 6 -d 8 -p ACK -e 5 -c 2 -a 0 -i 3 -k MAC 
- -t 1.120564731 -s 6 -d 8 -p ACK -e 5 -c 2 -a 0 -i 3 -k MAC
h -t 1.120564731 -s 6 -d 8 -p ACK -e 5 -c 2 -a 0 -i 3 -k MAC
r -t 1.120917346 -s 8 -d 8 -p ACK -e 5 -c 2 -a 0 -i 3 -k MAC
r -t 1.121556731 -s 6 -d 6 -p tcp -e 100 -c 2 -a 0 -i 3 -k MAC
+ -t 1.121556731 -s 6 -d 7 -p tcp -e 107 -c 2 -a 0 -i 2 -k MAC 
- -t 1.121556731 -s 6 -d 7 -p tcp -e 107 -c 2 -a 0 -i 2 -k MAC
h -t 1.121556731 -s 6 -d 7 -p tcp -e 107 -c 2 -a 0 -i 2 -k MAC
+ -t 1.125365066 -s 7 -d 6 -p ACK -e 5 -c 2 -a 0 -i 2 -k MAC 
- -t 1.125365066 -s 7 -d 6 -p ACK -e 5 -c 2 -a 0 -i 2 -k MAC
h -t 1.125365066 -s 7 -d 6 -p ACK -e 5 -c 2 -a 0 -i 2 -k MAC
r -t 1.125717401 -s 6 -d 6 -p ACK -e 5 -c 2 -a 0 -i 2 -k MAC
r -t 1.126357066 -s 7 -d 7 -p tcp -e 100 -c 2 -a 0 -i 2 -k MAC
r -t 1.126382066 -s 7 -d 7 -p tcp -e 100 -c 2 -a 0 -i 2 -k AGT
+ -t 1.126382066 -s 7 -d -1 -p ack -e 40 -c 2 -a 0 -i 4 -k AGT 
- -t 1.126382066 -s 7 -d -1 -p ack -e 40 -c 2 -a 0 -i 4 -k AGT
h -t 1.126382066 -s 7 -d -1 -p ack -e 40 -c 2 -a 0 -i 4 -k AGT
+ -t 1.127637401 -s 6 -d 7 -p tcp -e 107 -c 2 -a 0 -i 3 -k MAC 
- -t 1.127637401 -s 6 -d 7 -p tcp -e 107 -c 2 -a 0 -i 3 -k MAC
h -t 1.127637401 -s 6 -d 7 -p tcp -e 107 -c 2 -a 0 -i 3 -k MAC
+ -t 1.131445736 -s 7 -d 6 -p ACK -e 5 -c 2 -a 0 -i 3 -k MAC 
- -t 1.131445736 -s 7 -d 6 -p ACK -e 5 -c 2 -a 0 -i 3 -k MAC
h -t 1.131445736 -s 7 -d 6 -p ACK -e 5 -c 2 -a 0 -i 3 -k MAC
r -t 1.131798071 -s 6 -d 6 -p ACK -e 5 -c 2 -a 0 -i 3 -k MAC
r -t 1.132437736 -s 7 -d 7 -p tcp -e 100 -c 2 -a 0 -i 3 -k MAC
r -t 1.132462736 -s 7 -d 7 -p tcp -e 100 -c 2 -a 0 -i 3 -k AGT
+ -t 1.132462736 -s 7 -d -1 -p ack -e 40 -c 2 -a 0 -i 5 -k AGT 
- -t 1.132462736 -s 7 -d -1 -p ack -e 40 -c 2 -a 0 -i 5 -k AGT
h -t 1.132462736 -s 7 -d -1 -p ack -e 40 -c 2 -a 0 -i 5 -k AGT
+ -t 1.134357736 -s 7 -d 6 -p ack -e 67 -c 2 -a 0 -i 4 -k MAC 
- -t 1.134357736 -s 7 -d 6 -p ack -e 67 -c 2 -a 0 -i 4 -k MAC
h -t 1.134357736 -s 7 -d 6 -p ack -e 67 -c 2 -a 0 -i 4 -k MAC
+ -t 1.136886071 -s 6 -d 7 -p ACK -e 5 -c 2 -a 0 -i 4 -k MAC 
- -t 1.136886071 -s 6 -d 7 -p ACK -e 5 -c 2 -a 0 -i 4 -k MAC
h -t 1.136886071 -s 6 -d 7 -p ACK -e 5 -c 2 -a 0 -i 4 -k MAC
r -t 1.137238406 -s 7 -d 7 -p ACK -e 5 -c 2 -a 0 -i 4 -k MAC
r -t 1.137878071 -s 6 -d 6 -p ack -e 60 -c 2 -a 0 -i 4 -k MAC
+ -t 1.139158406 -s 7 -d 6 -p ack -e 67 -c 2 -a 0 -i 5 -k MAC 
- -t 1.139158406 -s 7 -d 6 -p ack -e 67 -c 2 -a 0 -i 5 -k MAC
h -t 1.139158406 -s 7 -d 6 -p ack -e 67 -c 2 -a 0 -i 5 -k MAC
+ -t 1.141686741 -s 6 -d 7 -p ACK -e 5 -c 2 -a 0 -i 5 -k MAC 
- -t 1.141686741 -s 6 -d 7 -p ACK -e 5 -c 2 -a 0 -i 5 -k MAC
h -t 1.141686741 -s 6 -d 7 -p ACK -e 5 -c 2 -a 0 -i 5 -k MAC
r -t 1.142039077 -s 7 -d 7 -p ACK -e 5 -c 2 -a 0 -i 5 -k MAC
r -t 1.142678741 -s 6 -d 6 -p ack -e 60 -c 2 -a 0 -i 5 -k MAC
+ -t 1.144598741 -s 6 -d 8 -p ack -e 67 -c 2 -a 0 -i 4 -k MAC 
- -t 1.144598741 -s 6 -d 8 -p ack -e 67 -c 2 -a 0 -i 4 -k MAC
h -t 1.144598741 -s 6 -d 8 -p ack -e 67 -c 2 -a 0 -i 4 -k MAC
+ -t 1.147127357 -s 8 -d 6 -p ACK -e 5 -c 2 -a 0 -i 4 -k MAC 
- -t 1.147127357 -s 8 -d 6 -p ACK -e 5 -c 2 -a 0 -i 4 -k MAC
h -t 1.147127357 -s 8 -d 6 -p ACK -e 5 -c 2 -a 0 -i 4 -k MAC
r -t 1.147479972 -s 6 -d 6 -p ACK -e 5 -c 2 -a 0 -i 4 -k MAC
r -t 1.148119357 -s 8 -d 8 -p ack -e 60 -c 2 -a 0 -i 4 -k MAC
+ -t 1.148809357 -s 8 -d 0 -p ack -e 67 -c 2 -a 0 -i 4 -k MAC 
- -t 1.148809357 -s 8 -d 0 -p ack -e 67 -c 2 -a 0 -i 4 -k MAC
h -t 1.148809357 -s 8 -d 0 -p ack -e 67 -c 2 -a 0 -i 4 -k MAC
+ -t 1.151337786 -s 0 -d 8 -p ACK -e 5 -c 2 -a 0 -i 4 -k MAC 
- -t 1.151337786 -s 0 -d 8 -p ACK -e 5 -c 2 -a 0 -i 4 -k MAC
h -t 1.151337786 -s 0 -d 8 -p ACK -e 5 -c 2 -a 0 -i 4 -k MAC
r -t 1.151690216 -s 8 -d 8 -p ACK -e 5 -c 2 -a 0 -i 4 -k MAC
r -t 1.152329786 -s 0 -d 0 -p ack -e 60 -c 2 -a 0 -i 4 -k MAC
r -t 1.152354786 -s 0 -d 0 -p ack -e 60 -c 2 -a 0 -i 4 -k AGT
+ -t 1.152354786 -s 0 -d -1 -p tcp -e 592 -c 2 -a 0 -i 6 -k AGT 
- -t 1.152354786 -s 0 -d -1 -p tcp -e 592 -c 2 -a 0 -i 6 -k AGT
h -t 1.152354786 -s 0 -d -1 -p tcp -e 592 -c 2 -a 0 -i 6 -k AGT
+ -t 1.152354786 -s 0 -d -1 -p tcp -e 592 -c 2 -a 0 -i 7 -k AGT 
- -t 1.152354786 -s 0 -d -1 -p tcp -e 592 -c 2 -a 0 -i 7 -k AGT
h -t 1.152354786 -s 0 -d -1 -p tcp -e 592 -c 2 -a 0 -i 7 -k AGT
+ -t 1.154939786 -s 0 -d 8 -p tcp -e 107 -c 2 -a 0 -i 6 -k MAC 
- -t 1.154939786 -s 0 -d 8 -p tcp -e 107 -c 2 -a 0 -i 6 -k MAC
h -t 1.154939786 -s 0 -d 8 -p tcp -e 107 -c 2 -a 0 -i 6 -k MAC
+ -t 1.158748216 -s 8 -d 0 -p ACK -e 5 -c 2 -a 0 -i 6 -k MAC 
- -t 1.158748216 -s 8 -d 0 -p ACK -e 5 -c 2 -a 0 -i 6 -k MAC
h -t 1.158748216 -s 8 -d 0 -p ACK -e 5 -c 2 -a 0 -i 6 -k MAC
r -t 1.159100646 -s 0 -d 0 -p ACK -e 5 -c 2 -a 0 -i 6 -k MAC
+ -t 1.159383972 -s 6 -d 8 -p ack -e 67 -c 2 -a 0 -i 5 -k MAC 
- -t 1.159383972 -s 6 -d 8 -p ack -e 67 -c 2 -a 0 -i 5 -k MAC
h -t 1.159383972 -s 6 -d 8 -p ack -e 67 -c 2 -a 0 -i 5 -k MAC
r -t 1.159740216 -s 8 -d 8 -p tcp -e 100 -c 2 -a 0 -i 6 -k MAC
+ -t 1.161912587 -s 8 -d 6 -p ACK -e 5 -c 2 -a 0 -i 5 -k MAC 
- -t 1.161912587 -s 8 -d 6 -p ACK -e 5 -c 2 -a 0 -i 5 -k MAC
h -t 1.161912587 -s 8 -d 6 -p ACK -e 5 -c 2 -a 0 -i 5 -k MAC
r -t 1.162265202 -s 6 -d 6 -p ACK -e 5 -c 2 -a 0 -i 5 -k MAC
+ -t 1.162748646 -s 0 -d 8 -p tcp -e 107 -c 2 -a 0 -i 7 -k MAC 
- -t 1.162748646 -s 0 -d 8 -p tcp -e 107 -c 2 -a 0 -i 7 -k MAC
h -t 1.162748646 -s 0 -d 8 -p tcp -e 107 -c 2 -a 0 -i 7 -k MAC
r -t 1.162904587 -s 8 -d 8 -p ack -e 60 -c 2 -a 0 -i 5 -k MAC
+ -t 1.166557076 -s 8 -d 0 -p ACK -e 5 -c 2 -a 0 -i 7 -k MAC 
- -t 1.166557076 -s 8 -d 0 -p ACK -e 5 -c 2 -a 0 -i 7 -k MAC
h -t 1.166557076 -s 8 -d 0 -p ACK -e 5 -c 2 -a 0 -i 7 -k MAC
r -t 1.166909506 -s 0 -d 0 -p ACK -e 5 -c 2 -a 0 -i 7 -k MAC
+ -t 1.167229076 -s 8 -d 6 -p tcp -e 107 -c 2 -a 0 -i 6 -k MAC 
- -t 1.167229076 -s 8 -d 6 -p tcp -e 107 -c 2 -a 0 -i 6 -k MAC
h -t 1.167229076 -s 8 -d 6 -p tcp -e 107 -c 2 -a 0 -i 6 -k MAC
r -t 1.167549076 -s 8 -d 8 -p tcp -e 100 -c 2 -a 0 -i 7 -k MAC
+ -t 1.171037691 -s 6 -d 8 -p ACK -e 5 -c 2 -a 0 -i 6 -k MAC 
- -t 1.171037691 -s 6 -d 8 -p ACK -e 5 -c 2 -a 0 -i 6 -k MAC
h -t 1.171037691 -s 6 -d 8 -p ACK -e 5 -c 2 -a 0 -i 6 -k MAC
r -t 1.171390306 -s 8 -d 8 -p ACK -e 5 -c 2 -a 0 -i 6 -k MAC
r -t 1.172029691 -s 6 -d 6 -p tcp -e 100 -c 2 -a 0 -i 6 -k MAC
+ -t 1.172350306 -s 8 -d 0 -p ack -e 67 -c 2 -a 0 -i 5 -k MAC 
- -t 1.172350306 -s 8 -d 0 -p ack -e 67 -c 2 -a 0 -i 5 -k MAC
h -t 1.172350306 -s 8 -d 0 -p ack -e 67 -c 2 -a 0 -i 5 -k MAC
+ -t 1.174878737 -s 0 -d 8 -p ACK -e 5 -c 2 -a 0 -i 5 -k MAC 
- -t 1.174878737 -s 0 -d 8 -p ACK -e 5 -c 2 -a 0 -i 5 -k MAC
h -t 1.174878737 -s 0 -d 8 -p ACK -e 5 -c 2 -a 0 -i 5 -k MAC
r -t 1.175231167 -s 8 -d 8 -p ACK -e 5 -c 2 -a 0 -i 5 -k MAC
r -t 1.175870737 -s 0 -d 0 -p ack -e 60 -c 2 -a 0 -i 5 -k MAC
r -t 1.175895737 -s 0 -d 0 -p ack -e 60 -c 2 -a 0 -i 5 -k AGT
+ -t 1.175895737 -s 0 -d -1 -p tcp -e 592 -c 2 -a 0 -i 8 -k AGT 
- -t 1.175895737 -s 0 -d -1 -p tcp -e 592 -c 2 -a 0 -i 8 -k AGT
h -t 1.175895737 -s 0 -d -1 -p tcp -e 592 -c 2 -a 0 -i 8 -k AGT
+ -t 1.175895737 -s 0 -d -1 -p tcp -e 592 -c 2 -a 0 -i 9 -k AGT 
- -t 1.175895737 -s 0 -d -1 -p tcp -e 592 -c 2 -a 0 -i 9 -k AGT
h -t 1.175895737 -s 0 -d -1 -p tcp -e 592 -c 2 -a 0 -i 9 -k AGT
+ -t 1.176511167 -s 8 -d 6 -p tcp -e 107 -c 2 -a 0 -i 7 -k MAC 
- -t 1.176511167 -s 8 -d 6 -p tcp -e 107 -c 2 -a 0 -i 7 -k MAC
h -t 1.176511167 -s 8 -d 6 -p tcp -e 107 -c 2 -a 0 -i 7 -k MAC
+ -t 1.180319782 -s 6 -d 8 -p ACK -e 5 -c 2 -a 0 -i 7 -k MAC 
- -t 1.180319782 -s 6 -d 8 -p ACK -e 5 -c 2 -a 0 -i 7 -k MAC
h -t 1.180319782 -s 6 -d 8 -p ACK -e 5 -c 2 -a 0 -i 7 -k MAC
r -t 1.180672397 -s 8 -d 8 -p ACK -e 5 -c 2 -a 0 -i 7 -k MAC
r -t 1.181311782 -s 6 -d 6 -p tcp -e 100 -c 2 -a 0 -i 7 -k MAC
+ -t 1.182591782 -s 6 -d 7 -p tcp -e 107 -c 2 -a 0 -i 6 -k MAC 
- -t 1.182591782 -s 6 -d 7 -p tcp -e 107 -c 2 -a 0 -i 6 -k MAC
h -t 1.182591782 -s 6 -d 7 -p tcp -e 107 -c 2 -a 0 -i 6 -k MAC
+ -t 1.186400117 -s 7 -d 6 -p ACK -e 5 -c 2 -a 0 -i 6 -k MAC 
- -t 1.186400117 -s 7 -d 6 -p ACK -e 5 -c 2 -a 0 -i 6 -k MAC
h -t 1.186400117 -s 7 -d 6 -p ACK -e 5 -c 2 -a 0 -i 6 -k MAC
r -t 1.186752452 -s 6 -d 6 -p ACK -e 5 -c 2 -a 0 -i 6 -k MAC
r -t 1.187392117 -s 7 -d 7 -p tcp -e 100 -c 2 -a 0 -i 6 -k MAC
r -t 1.187417117 -s 7 -d 7 -p tcp -e 100 -c 2 -a 0 -i 6 -k AGT
+ -t 1.187417117 -s 7 -d -1 -p ack -e 40 -c 2 -a 0 -i 10 -k AGT 
- -t 1.187417117 -s 7 -d -1 -p ack -e 40 -c 2 -a 0 -i 10 -k AGT
h -t 1.187417117 -s 7 -d -1 -p ack -e 40 -c 2 -a 0 -i 10 -k AGT
+ -t 1.188032452 -s 6 -d 7 -p tcp -e 107 -c 2 -a 0 -i 7 -k MAC 
- -t 1.188032452 -s 6 -d 7 -p tcp -e 107 -c 2 -a 0 -i 7 -k MAC
h -t 1.188032452 -s 6 -d 7 -p tcp -e 107 -c 2 -a 0 -i 7 -k MAC
+ -t 1.191840787 -s 7 -d 6 -p ACK -e 5 -c 2 -a 0 -i 7 -k MAC 
- -t 1.191840787 -s 7 -d 6 -p ACK -e 5 -c 2 -a 0 -i 7 -k MAC
h -t 1.191840787 -s 7 -d 6 -p ACK -e 5 -c 2 -a 0 -i 7 -k MAC
r -t 1.192193122 -s 6 -d 6 -p ACK -e 5 -c 2 -a 0 -i 7 -k MAC
r -t 1.192832787 -s 7 -d 7 -p tcp -e 100 -c 2 -a 0 -i 7 -k MAC
r -t 1.192857787 -s 7 -d 7 -p tcp -e 100 -c 2 -a 0 -i 7 -k AGT
+ -t 1.192857787 -s 7 -d -1 -p ack -e 40 -c 2 -a 0 -i 11 -k AGT 
- -t 1.192857787 -s 7 -d -1 -p ack -e 40 -c 2 -a 0 -i 11 -k AGT
h -t 1.192857787 -s 7 -d -1 -p ack -e 40 -c 2 -a 0 -i 11 -k AGT
+ -t 1.192944737 -s 0 -d 8 -p tcp -e 107 -c 2 -a 0 -i 8 -k MAC 
- -t 1.192944737 -s 0 -d 8 -p tcp -e 107 -c 2 -a 0 -i 8 -k MAC
h -t 1.192944737 -s 0 -d 8 -p tcp -e 107 -c 2 -a 0 -i 8 -k MAC
+ -t 1.196753167 -s 8 -d 0 -p ACK -e 5 -c 2 -a 0 -i 8 -k MAC 
- -t 1.196753167 -s 8 -d 0 -p ACK -e 5 -c 2 -a 0 -i 8 -k MAC
h -t 1.196753167 -s 8 -d 0 -p ACK -e 5 -c 2 -a 0 -i 8 -k MAC
r -t 1.197105598 -s 0 -d 0 -p ACK -e 5 -c 2 -a 0 -i 8 -k MAC
+ -t 1.197425598 -s 0 -d 8 -p tcp -e 107 -c 2 -a 0 -i 9 -k MAC 
- -t 1.197425598 -s 0 -d 8 -p tcp -e 107 -c 2 -a 0 -i 9 -k MAC
h -t 1.197425598 -s 0 -d 8 -p tcp -e 107 -c 2 -a 0 -i 9 -k MAC
r -t 1.197745167 -s 8 -d 8 -p tcp -e 100 -c 2 -a 0 -i 8 -k MAC
+ -t 1.201234029 -s 8 -d 0 -p ACK -e 5 -c 2 -a 0 -i 9 -k MAC 
- -t 1.201234029 -s 8 -d 0 -p ACK -e 5 -c 2 -a 0 -i 9 -k MAC
h -t 1.201234029 -s 8 -d 0 -p ACK -e 5 -c 2 -a 0 -i 9 -k MAC
r -t 1.201586459 -s 0 -d 0 -p ACK -e 5 -c 2 -a 0 -i 9 -k MAC
r -t 1.202226029 -s 8 -d 8 -p tcp -e 100 -c 2 -a 0 -i 9 -k MAC
+ -t 1.203186029 -s 8 -d 6 -p tcp -e 107 -c 2 -a 0 -i 8 -k MAC 
- -t 1.203186029 -s 8 -d 6 -p tcp -e 107 -c 2 -a 0 -i 8 -k MAC
h -t 1.203186029 -s 8 -d 6 -p tcp -e 107 -c 2 -a 0 -i 8 -k MAC
+ -t 1.206994644 -s 6 -d 8 -p ACK -e 5 -c 2 -a 0 -i 8 -k MAC 
- -t 1.206994644 -s 6 -d 8 -p ACK -e 5 -c 2 -a 0 -i 8 -k MAC
h -t 1.206994644 -s 6 -d 8 -p ACK -e 5 -c 2 -a 0 -i 8 -k MAC
r -t 1.207347259 -s 8 -d 8 -p ACK -e 5 -c 2 -a 0 -i 8 -k MAC
r -t 1.207986644 -s 6 -d 6 -p tcp -e 100 -c 2 -a 0 -i 8 -k MAC
+ -t 1.208356644 -s 6 -d 7 -p tcp -e 107 -c 2 -a 0 -i 8 -k MAC 
- -t 1.208356644 -s 6 -d 7 -p tcp -e 107 -c 2 -a 0 -i 8 -k MAC
h -t 1.208356644 -s 6 -d 7 -p tcp -e 107 -c 2 -a 0 -i 8 -k MAC
+ -t 1.212164979 -s 7 -d 6 -p ACK -e 5 -c 2 -a 0 -i 8 -k MAC 
- -t 1.212164979 -s 7 -d 6 -p ACK -e 5 -c 2 -a 0 -i 8 -k MAC
h -t 1.212164979 -s 7 -d 6 -p ACK -e 5 -c 2 -a 0 -i 8 -k MAC
r -t 1.212517314 -s 6 -d 6 -p ACK -e 5 -c 2 -a 0 -i 8 -k MAC
r -t 1.213156979 -s 7 -d 7 -p tcp -e 100 -c 2 -a 0 -i 8 -k MAC
r -t 1.213181979 -s 7 -d 7 -p tcp -e 100 -c 2 -a 0 -i 8 -k AGT
+ -t 1.213181979 -s 7 -d -1 -p ack -e 40 -c 2 -a 0 -i 12 -k AGT 
- -t 1.213181979 -s 7 -d -1 -p ack -e 40 -c 2 -a 0 -i 12 -k AGT
h -t 1.213181979 -s 7 -d -1 -p ack -e 40 -c 2 -a 0 -i 12 -k AGT
+ -t 1.214116979 -s 7 -d 6 -p ack -e 67 -c 2 -a 0 -i 10 -k MAC 
- -t 1.214116979 -s 7 -d 6 -p ack -e 67 -c 2 -a 0 -i 10 -k MAC
h -t 1.214116979 -s 7 -d 6 -p ack -e 67 -c 2 -a 0 -i 10 -k MAC
+ -t 1.216645314 -s 6 -d 7 -p ACK -e 5 -c 2 -a 0 -i 10 -k MAC 
- -t 1.216645314 -s 6 -d 7 -p ACK -e 5 -c 2 -a 0 -i 10 -k MAC
h -t 1.216645314 -s 6 -d 7 -p ACK -e 5 -c 2 -a 0 -i 10 -k MAC
r -t 1.216997649 -s 7 -d 7 -p ACK -e 5 -c 2 -a 0 -i 10 -k MAC
r -t 1.217637314 -s 6 -d 6 -p ack -e 60 -c 2 -a 0 -i 10 -k MAC
+ -t 1.218917649 -s 7 -d 6 -p ack -e 67 -c 2 -a 0 -i 11 -k MAC 
- -t 1.218917649 -s 7 -d 6 -p ack -e 67 -c 2 -a 0 -i 11 -k MAC
h -t 1.218917649 -s 7 -d 6 -p ack -e 67 -c 2 -a 0 -i 11 -k MAC
+ -t 1.221445984 -s 6 -d 7 -p ACK -e 5 -c 2 -a 0 -i 11 -k MAC 
- -t 1.221445984 -s 6 -d 7 -p ACK -e 5 -c 2 -a 0 -i 11 -k MAC
h -t 1.221445984 -s 6 -d 7 -p ACK -e 5 -c 2 -a 0 -i 11 -k MAC
r -t 1.221798319 -s 7 -d 7 -p ACK -e 5 -c 2 -a 0 -i 11 -k MAC
+ -t 1.222118319 -s 7 -d 6 -p ack -e 67 -c 2 -a 0 -i 12 -k MAC 
- -t 1.222118319 -s 7 -d 6 -p ack -e 67 -c 2 -a 0 -i 12 -k MAC