M 1.00000 0 (485.53, 12.72, 0.00), (550.00, 1.00), 30.00
M 1.00000 1 (522.22, 0.00, 0.00), (285.00, 10.00), 30.00
M 1.00000 2 (562.02, -5.66, 0.00), (450.00, 20.00), 30.00
M 1.00000 3 (599.34, -1.98, 0.00), (285.00, 10.00), 50.00
M 1.00000 4 (639.53, -1.47, 0.00), (550.00, 2.00), 30.00
M 1.00000 5 (679.71, 13.54, 0.00), (125.00, 15.00), 30.00
s 1.000000000 _0_ AGT  --- 0 tcp 40 [0 0 0 0] [energy 0.500000] ------- [0:0 7:0 32 0] [0 0] 0 0
s 1.000665000 _0_ MAC  --- 0 AODV 55 [0 ffffffff 0 800] [energy 0.500000] ------- [0:255 -1:255 30 0] [0x2 1 1 [7 0] [0 4]] (REQUEST)
r 1.003257129 _1_ MAC  --- 0 AODV 48 [0 ffffffff 0 800] [energy 0.499919] ------- [0:255 -1:255 30 0] [0x2 1 1 [7 0] [0 4]] (REQUEST)
r 1.003257262 _2_ MAC  --- 0 AODV 48 [0 ffffffff 0 800] [energy 0.499919] ------- [0:255 -1:255 30 0] [0x2 1 1 [7 0] [0 4]] (REQUEST)
r 1.003257382 _3_ MAC  --- 0 AODV 48 [0 ffffffff 0 800] [energy 0.499919] ------- [0:255 -1:255 30 0] [0x2 1 1 [7 0] [0 4]] (REQUEST)
r 1.003257427 _8_ MAC  --- 0 AODV 48 [0 ffffffff 0 800] [energy 0.499919] ------- [0:255 -1:255 30 0] [0x2 1 1 [7 0] [0 4]] (REQUEST)
r 1.003257515 _4_ MAC  --- 0 AODV 48 [0 ffffffff 0 800] [energy 0.499919] ------- [0:255 -1:255 30 0] [0x2 1 1 [7 0] [0 4]] (REQUEST)
r 1.003257647 _5_ MAC  --- 0 AODV 48 [0 ffffffff 0 800] [energy 0.499919] ------- [0:255 -1:255 30 0] [0x2 1 1 [7 0] [0 4]] (REQUEST)
r 1.003257695 _9_ MAC  --- 0 AODV 48 [0 ffffffff 0 800] [energy 0.499919] ------- [0:255 -1:255 30 0] [0x2 1 1 [7 0] [0 4]] (REQUEST)
s 1.006999683 _8_ MAC  --- 0 AODV 55 [0 ffffffff 8 800] [energy 0.499919] ------- [8:255 -1:255 29 0] [0x2 2 1 [7 0] [0 4]] (REQUEST)
r 1.009592110 _0_ MAC  --- 0 AODV 48 [0 ffffffff 8 800] [energy 0.499876] ------- [8:255 -1:255 29 0] [0x2 2 1 [7 0] [0 4]] (REQUEST)
r 1.009592168 _1_ MAC  --- 0 AODV 48 [0 ffffffff 8 800] [energy 0.499838] ------- [8:255 -1:255 29 0] [0x2 2 1 [7 0] [0 4]] (REQUEST)
r 1.009592233 _9_ MAC  --- 0 AODV 48 [0 ffffffff 8 800] [energy 0.499838] ------- [8:255 -1:255 29 0] [0x2 2 1 [7 0] [0 4]] (REQUEST)
r 1.009592234 _2_ MAC  --- 0 AODV 48 [0 ffffffff 8 800] [energy 0.499838] ------- [8:255 -1:255 29 0] [0x2 2 1 [7 0] [0 4]] (REQUEST)
r 1.009592291 _3_ MAC  --- 0 AODV 48 [0 ffffffff 8 800] [energy 0.499838] ------- [8:255 -1:255 29 0] [0x2 2 1 [7 0] [0 4]] (REQUEST)
r 1.009592298 _6_ MAC  --- 0 AODV 48 [0 ffffffff 8 800] [energy 0.499876] ------- [8:255 -1:255 29 0] [0x2 2 1 [7 0] [0 4]] (REQUEST)
r 1.009592382 _4_ MAC  --- 0 AODV 48 [0 ffffffff 8 800] [energy 0.499838] ------- [8:255 -1:255 29 0] [0x2 2 1 [7 0] [0 4]] (REQUEST)
r 1.009592457 _5_ MAC  --- 0 AODV 48 [0 ffffffff 8 800] [energy 0.499838] ------- [8:255 -1:255 29 0] [0x2 2 1 [7 0] [0 4]] (REQUEST)
s 1.010401137 _5_ MAC  --- 0 AODV 55 [0 ffffffff 5 800] [energy 0.499838] ------- [5:255 -1:255 29 0] [0x2 2 1 [7 0] [0 4]] (REQUEST)
s 1.012567802 _1_ MAC  --- 0 AODV 55 [0 ffffffff 1 800] [energy 0.499756] ------- [1:255 -1:255 29 0] [0x2 2 1 [7 0] [0 4]] (REQUEST)
s 1.012665514 _2_ MAC  --- 0 AODV 55 [0 ffffffff 2 800] [energy 0.499715] ------- [2:255 -1:255 29 0] [0x2 2 1 [7 0] [0 4]] (REQUEST)
r 1.012993280 _4_ MAC  --- 0 AODV 48 [0 ffffffff 5 800] [energy 0.499698] ------- [5:255 -1:255 29 0] [0x2 2 1 [7 0] [0 4]] (REQUEST)
r 1.012993410 _3_ MAC  --- 0 AODV 48 [0 ffffffff 5 800] [energy 0.499698] ------- [5:255 -1:255 29 0] [0x2 2 1 [7 0] [0 4]] (REQUEST)
r 1.012993534 _2_ MAC  --- 0 AODV 48 [0 ffffffff 5 800] [energy 0.499698] ------- [5:255 -1:255 29 0] [0x2 2 1 [7 0] [0 4]] (REQUEST)
r 1.012993572 _9_ MAC  --- 0 AODV 48 [0 ffffffff 5 800] [energy 0.499698] ------- [5:255 -1:255 29 0] [0x2 2 1 [7 0] [0 4]] (REQUEST)
r 1.012993663 _1_ MAC  --- 0 AODV 48 [0 ffffffff 5 800] [energy 0.499698] ------- [5:255 -1:255 29 0] [0x2 2 1 [7 0] [0 4]] (REQUEST)
r 1.012993782 _0_ MAC  --- 0 AODV 48 [0 ffffffff 5 800] [energy 0.499736] ------- [5:255 -1:255 29 0] [0x2 2 1 [7 0] [0 4]] (REQUEST)
r 1.012993910 _8_ MAC  --- 0 AODV 48 [0 ffffffff 5 800] [energy 0.499736] ------- [5:255 -1:255 29 0] [0x2 2 1 [7 0] [0 4]] (REQUEST)
D 1.014519929 _0_ MAC  LQI 0 AODV 55 [0 ffffffff 1 800] [energy 0.499698] ------- [1:255 -1:255 29 0] [0x2 2 1 [7 0] [0 4]] (REQUEST)
D 1.014520287 _8_ MAC  LQI 0 AODV 55 [0 ffffffff 1 800] [energy 0.499698] ------- [1:255 -1:255 29 0] [0x2 2 1 [7 0] [0 4]] (REQUEST)
D 1.014617638 _3_ MAC  LQI 0 AODV 55 [0 ffffffff 2 800] [energy 0.499659] ------- [2:255 -1:255 29 0] [0x2 2 1 [7 0] [0 4]] (REQUEST)
D 1.014617773 _4_ MAC  LQI 0 AODV 55 [0 ffffffff 2 800] [energy 0.499659] ------- [2:255 -1:255 29 0] [0x2 2 1 [7 0] [0 4]] (REQUEST)
D 1.014617912 _5_ MAC  LQI 0 AODV 55 [0 ffffffff 2 800] [energy 0.499697] ------- [2:255 -1:255 29 0] [0x2 2 1 [7 0] [0 4]] (REQUEST)
D 1.014618084 _9_ MAC  LQI 0 AODV 55 [0 ffffffff 2 800] [energy 0.499659] ------- [2:255 -1:255 29 0] [0x2 2 1 [7 0] [0 4]] (REQUEST)
s 1.015284373 _6_ MAC  --- 0 AODV 55 [0 ffffffff 6 800] [energy 0.499774] ------- [6:255 -1:255 28 0] [0x2 3 1 [7 0] [0 4]] (REQUEST)
r 1.017876709 _7_ MAC  --- 0 AODV 48 [0 ffffffff 6 800] [energy 0.499731] ------- [6:255 -1:255 28 0] [0x2 3 1 [7 0] [0 4]] (REQUEST)
r 1.017876957 _9_ MAC  --- 0 AODV 48 [0 ffffffff 6 800] [energy 0.499578] ------- [6:255 -1:255 28 0] [0x2 3 1 [7 0] [0 4]] (REQUEST)
r 1.017876989 _8_ MAC  --- 0 AODV 48 [0 ffffffff 6 800] [energy 0.499616] ------- [6:255 -1:255 28 0] [0x2 3 1 [7 0] [0 4]] (REQUEST)
s 1.018666581 _4_ MAC  --- 0 AODV 55 [0 ffffffff 4 800] [energy 0.499616] ------- [4:255 -1:255 29 0] [0x2 2 1 [7 0] [0 4]] (REQUEST)
r 1.021258716 _3_ MAC  --- 0 AODV 48 [0 ffffffff 4 800] [energy 0.499535] ------- [4:255 -1:255 29 0] [0x2 2 1 [7 0] [0 4]] (REQUEST)
r 1.021258724 _5_ MAC  --- 0 AODV 48 [0 ffffffff 4 800] [energy 0.499573] ------- [4:255 -1:255 29 0] [0x2 2 1 [7 0] [0 4]] (REQUEST)
r 1.021258840 _2_ MAC  --- 0 AODV 48 [0 ffffffff 4 800] [energy 0.499574] ------- [4:255 -1:255 29 0] [0x2 2 1 [7 0] [0 4]] (REQUEST)
r 1.021258972 _1_ MAC  --- 0 AODV 48 [0 ffffffff 4 800] [energy 0.499574] ------- [4:255 -1:255 29 0] [0x2 2 1 [7 0] [0 4]] (REQUEST)
r 1.021259056 _9_ MAC  --- 0 AODV 48 [0 ffffffff 4 800] [energy 0.499497] ------- [4:255 -1:255 29 0] [0x2 2 1 [7 0] [0 4]] (REQUEST)
r 1.021259093 _0_ MAC  --- 0 AODV 48 [0 ffffffff 4 800] [energy 0.499574] ------- [4:255 -1:255 29 0] [0x2 2 1 [7 0] [0 4]] (REQUEST)
r 1.021259279 _8_ MAC  --- 0 AODV 48 [0 ffffffff 4 800] [energy 0.499535] ------- [4:255 -1:255 29 0] [0x2 2 1 [7 0] [0 4]] (REQUEST)
s 1.021746014 _9_ MAC  --- 0 AODV 55 [0 ffffffff 9 800] [energy 0.499497] ------- [9:255 -1:255 29 0] [0x2 2 1 [7 0] [0 4]] (REQUEST)
r 1.024338449 _5_ MAC  --- 0 AODV 48 [0 ffffffff 9 800] [energy 0.499492] ------- [9:255 -1:255 29 0] [0x2 2 1 [7 0] [0 4]] (REQUEST)
r 1.024338490 _4_ MAC  --- 0 AODV 48 [0 ffffffff 9 800] [energy 0.499492] ------- [9:255 -1:255 29 0] [0x2 2 1 [7 0] [0 4]] (REQUEST)
r 1.024338520 _3_ MAC  --- 0 AODV 48 [0 ffffffff 9 800] [energy 0.499454] ------- [9:255 -1:255 29 0] [0x2 2 1 [7 0] [0 4]] (REQUEST)
r 1.024338564 _8_ MAC  --- 0 AODV 48 [0 ffffffff 9 800] [energy 0.499454] ------- [9:255 -1:255 29 0] [0x2 2 1 [7 0] [0 4]] (REQUEST)
r 1.024338585 _2_ MAC  --- 0 AODV 48 [0 ffffffff 9 800] [energy 0.499493] ------- [9:255 -1:255 29 0] [0x2 2 1 [7 0] [0 4]] (REQUEST)
r 1.024338598 _6_ MAC  --- 0 AODV 48 [0 ffffffff 9 800] [energy 0.499607] ------- [9:255 -1:255 29 0] [0x2 2 1 [7 0] [0 4]] (REQUEST)
r 1.024338650 _1_ MAC  --- 0 AODV 48 [0 ffffffff 9 800] [energy 0.499493] ------- [9:255 -1:255 29 0] [0x2 2 1 [7 0] [0 4]] (REQUEST)
r 1.024338708 _0_ MAC  --- 0 AODV 48 [0 ffffffff 9 800] [energy 0.499493] ------- [9:255 -1:255 29 0] [0x2 2 1 [7 0] [0 4]] (REQUEST)
s 1.024870977 _3_ MAC  --- 0 AODV 55 [0 ffffffff 3 800] [energy 0.499454] ------- [3:255 -1:255 29 0] [0x2 2 1 [7 0] [0 4]] (REQUEST)
r 1.027463100 _2_ MAC  --- 0 AODV 48 [0 ffffffff 3 800] [energy 0.499411] ------- [3:255 -1:255 29 0] [0x2 2 1 [7 0] [0 4]] (REQUEST)
r 1.027463113 _4_ MAC  --- 0 AODV 48 [0 ffffffff 3 800] [energy 0.499411] ------- [3:255 -1:255 29 0] [0x2 2 1 [7 0] [0 4]] (REQUEST)
r 1.027463232 _1_ MAC  --- 0 AODV 48 [0 ffffffff 3 800] [energy 0.499411] ------- [3:255 -1:255 29 0] [0x2 2 1 [7 0] [0 4]] (REQUEST)
r 1.027463251 _5_ MAC  --- 0 AODV 48 [0 ffffffff 3 800] [energy 0.499410] ------- [3:255 -1:255 29 0] [0x2 2 1 [7 0] [0 4]] (REQUEST)
r 1.027463353 _0_ MAC  --- 0 AODV 48 [0 ffffffff 3 800] [energy 0.499411] ------- [3:255 -1:255 29 0] [0x2 2 1 [7 0] [0 4]] (REQUEST)
r 1.027463483 _9_ MAC  --- 0 AODV 48 [0 ffffffff 3 800] [energy 0.499373] ------- [3:255 -1:255 29 0] [0x2 2 1 [7 0] [0 4]] (REQUEST)
r 1.027463583 _8_ MAC  --- 0 AODV 48 [0 ffffffff 3 800] [energy 0.499373] ------- [3:255 -1:255 29 0] [0x2 2 1 [7 0] [0 4]] (REQUEST)
s 1.028978709 _7_ MAC  --- 0 ARP 35 [0 ffffffff 7 806] [energy 0.499603] ------- [REQUEST 7/7 0/6]
r 1.030931044 _6_ MAC  --- 0 ARP 28 [0 ffffffff 7 806] [energy 0.499511] ------- [REQUEST 7/7 0/6]
s 1.032856044 _6_ MAC  --- 0 ARP 35 [0 7 6 806] [energy 0.499511] ------- [REPLY 6/6 7/7]
s 1.034360379 _7_ MAC  --- 0 ACK 5 [0 6 7 0] [energy 0.499521] 
r 1.034712714 _6_ MAC  --- 0 ACK 5 [0 6 7 0] [energy 0.499471] 
r 1.035352379 _7_ MAC  --- 0 ARP 28 [0 7 6 806] [energy 0.499513] ------- [REPLY 6/6 7/7]
s 1.037277379 _7_ MAC  --- 0 AODV 51 [0 6 7 800] [energy 0.499513] ------- [7:255 0:255 30 6] [0x4 1 [7 4] 10.000000] (REPLY)
s 1.039293714 _6_ MAC  --- 0 ACK 5 [0 7 6 0] [energy 0.499396] 
r 1.039646049 _7_ MAC  --- 0 ACK 5 [0 7 6 0] [energy 0.499462] 
r 1.040285714 _6_ MAC  --- 0 AODV 44 [0 6 7 800] [energy 0.499390] ------- [7:255 0:255 30 6] [0x4 1 [7 4] 10.000000] (REPLY)
s 1.042875714 _6_ MAC  --- 0 ARP 35 [0 ffffffff 6 806] [energy 0.499390] ------- [REQUEST 6/6 0/8]
r 1.044828049 _7_ MAC  --- 0 ARP 28 [0 ffffffff 6 806] [energy 0.499409] ------- [REQUEST 6/6 0/8]
r 1.044828297 _9_ MAC  --- 0 ARP 28 [0 ffffffff 6 806] [energy 0.499207] ------- [REQUEST 6/6 0/8]
r 1.044828329 _8_ MAC  --- 0 ARP 28 [0 ffffffff 6 806] [energy 0.499207] ------- [REQUEST 6/6 0/8]
s 1.045153329 _8_ MAC  --- 0 ARP 35 [0 6 8 806] [energy 0.499207] ------- [REPLY 8/8 6/6]
s 1.046657944 _6_ MAC  --- 0 ACK 5 [0 8 6 0] [energy 0.499308] 
r 1.047010559 _8_ MAC  --- 0 ACK 5 [0 8 6 0] [energy 0.499167] 
r 1.047649944 _6_ MAC  --- 0 ARP 28 [0 6 8 806] [energy 0.499300] ------- [REPLY 8/8 6/6]
s 1.049894944 _6_ MAC  --- 0 AODV 51 [0 8 6 800] [energy 0.499300] ------- [7:255 0:255 29 8] [0x4 2 [7 4] 10.000000] (REPLY)
s 1.051911559 _8_ MAC  --- 0 ACK 5 [0 6 8 0] [energy 0.499091] 
r 1.052264174 _6_ MAC  --- 0 ACK 5 [0 6 8 0] [energy 0.499249] 
r 1.052903559 _8_ MAC  --- 0 AODV 44 [0 8 6 800] [energy 0.499086] ------- [7:255 0:255 29 8] [0x4 2 [7 4] 10.000000] (REPLY)
s 1.054213559 _8_ MAC  --- 0 ARP 35 [0 ffffffff 8 806] [energy 0.499086] ------- [REQUEST 8/8 0/0]
r 1.056165987 _0_ MAC  --- 0 ARP 28 [0 ffffffff 8 806] [energy 0.499133] ------- [REQUEST 8/8 0/0]
r 1.056166043 _1_ MAC  --- 0 ARP 28 [0 ffffffff 8 806] [energy 0.499133] ------- [REQUEST 8/8 0/0]
r 1.056166107 _2_ MAC  --- 0 ARP 28 [0 ffffffff 8 806] [energy 0.499133] ------- [REQUEST 8/8 0/0]
r 1.056166109 _9_ MAC  --- 0 ARP 28 [0 ffffffff 8 806] [energy 0.499070] ------- [REQUEST 8/8 0/0]
r 1.056166163 _3_ MAC  --- 0 ARP 28 [0 ffffffff 8 806] [energy 0.499133] ------- [REQUEST 8/8 0/0]
r 1.056166174 _6_ MAC  --- 0 ARP 28 [0 ffffffff 8 806] [energy 0.499196] ------- [REQUEST 8/8 0/0]
r 1.056166255 _4_ MAC  --- 0 ARP 28 [0 ffffffff 8 806] [energy 0.499133] ------- [REQUEST 8/8 0/0]
r 1.056166329 _5_ MAC  --- 0 ARP 28 [0 ffffffff 8 806] [energy 0.499132] ------- [REQUEST 8/8 0/0]
s 1.057770987 _0_ MAC  --- 0 ARP 35 [0 8 0 806] [energy 0.499133] ------- [REPLY 0/0 8/8]
s 1.059275415 _8_ MAC  --- 0 ACK 5 [0 0 8 0] [energy 0.499004] 
r 1.059627843 _0_ MAC  --- 0 ACK 5 [0 0 8 0] [energy 0.499093] 
r 1.060267415 _8_ MAC  --- 0 ARP 28 [0 8 0 806] [energy 0.498996] ------- [REPLY 0/0 8/8]
s 1.060912415 _8_ MAC  --- 0 AODV 51 [0 0 8 800] [energy 0.498996] ------- [7:255 0:255 28 0] [0x4 3 [7 4] 10.000000] (REPLY)
s 1.062928843 _0_ MAC  --- 0 ACK 5 [0 8 0 0] [energy 0.499017] 
r 1.063281271 _8_ MAC  --- 0 ACK 5 [0 8 0 0] [energy 0.498945] 
r 1.063920843 _0_ MAC  --- 0 AODV 44 [0 0 8 800] [energy 0.499012] ------- [7:255 0:255 28 0] [0x4 3 [7 4] 10.000000] (REPLY)
s 1.065890843 _0_ MAC  --- 0 tcp 67 [0 8 0 800] [energy 0.499012] ------- [0:0 7:0 30 8] [0 0] 0 0
s 1.068419271 _8_ MAC  --- 0 ACK 5 [0 0 8 0] [energy 0.498847] 
r 1.068771699 _0_ MAC  --- 0 ACK 5 [0 0 8 0] [energy 0.498949] 
r 1.069411271 _8_ MAC  --- 0 tcp 60 [0 8 0 800] [energy 0.498847] ------- [0:0 7:0 30 8] [0 0] 1 0
s 1.071701271 _8_ MAC  --- 0 tcp 67 [0 6 8 800] [energy 0.498847] ------- [0:0 7:0 29 6] [0 0] 1 0
s 1.074229886 _6_ MAC  --- 0 ACK 5 [0 8 6 0] [energy 0.498955] 
r 1.074582501 _8_ MAC  --- 0 ACK 5 [0 8 6 0] [energy 0.498785] 
r 1.075221886 _6_ MAC  --- 0 tcp 60 [0 6 8 800] [energy 0.498955] ------- [0:0 7:0 29 6] [0 0] 2 0
s 1.076551886 _6_ MAC  --- 0 tcp 67 [0 7 6 800] [energy 0.498955] ------- [0:0 7:0 28 7] [0 0] 2 0
s 1.079080221 _7_ MAC  --- 0 ACK 5 [0 6 7 0] [energy 0.498997] 
r 1.079432556 _6_ MAC  --- 0 ACK 5 [0 6 7 0] [energy 0.498893] 
r 1.080072221 _7_ MAC  --- 0 tcp 60 [0 7 6 800] [energy 0.498997] ------- [0:0 7:0 28 7] [0 0] 3 0
r 1.080097221 _7_ AGT  --- 0 tcp 60 [0 7 6 800] [energy 0.498997] ------- [0:0 7:0 28 7] [0 0] 3 0
s 1.080097221 _7_ AGT  --- 1 ack 40 [0 0 0 0] [energy 0.498997] ------- [7:0 0:0 32 0] [0 0] 0 0
s 1.081082221 _7_ MAC  --- 1 ack 67 [0 6 7 800] [energy 0.498997] ------- [7:0 0:0 30 6] [0 0] 0 0
s 1.083610556 _6_ MAC  --- 1 ACK 5 [0 7 6 0] [energy 0.498795] 
r 1.083962891 _7_ MAC  --- 1 ACK 5 [0 7 6 0] [energy 0.498934] 
r 1.084602556 _6_ MAC  --- 1 ack 60 [0 6 7 800] [energy 0.498795] ------- [7:0 0:0 30 6] [0 0] 1 0
s 1.086892556 _6_ MAC  --- 1 ack 67 [0 8 6 800] [energy 0.498795] ------- [7:0 0:0 29 8] [0 0] 1 0
s 1.089421171 _8_ MAC  --- 1 ACK 5 [0 6 8 0] [energy 0.498569] 
r 1.089773786 _6_ MAC  --- 1 ACK 5 [0 6 8 0] [energy 0.498733] 
r 1.090413171 _8_ MAC  --- 1 ack 60 [0 8 6 800] [energy 0.498569] ------- [7:0 0:0 29 8] [0 0] 2 0
s 1.093023171 _8_ MAC  --- 1 ack 67 [0 0 8 800] [energy 0.498569] ------- [7:0 0:0 28 0] [0 0] 2 0
s 1.095551600 _0_ MAC  --- 1 ACK 5 [0 8 0 0] [energy 0.498616] 
r 1.095904028 _8_ MAC  --- 1 ACK 5 [0 8 0 0] [energy 0.498507] 
r 1.096543600 _0_ MAC  --- 1 ack 60 [0 0 8 800] [energy 0.498616] ------- [7:0 0:0 28 0] [0 0] 3 0
r 1.096568600 _0_ AGT  --- 1 ack 60 [0 0 8 800] [energy 0.498616] ------- [7:0 0:0 28 0] [0 0] 3 0
s 1.096568600 _0_ AGT  --- 2 tcp 592 [0 0 0 0] [energy 0.498616] ------- [0:0 7:0 32 0] [1 0] 0 0
s 1.096568600 _0_ AGT  --- 3 tcp 592 [0 0 0 0] [energy 0.498616] ------- [0:0 7:0 32 0] [2 0] 0 0
s 1.099153600 _0_ MAC  --- 2 tcp 107 [0 8 0 800] [energy 0.498616] ------- [0:0 7:0 30 8] [1 0] 0 0
s 1.102962028 _8_ MAC  --- 2 ACK 5 [0 0 8 0] [energy 0.498353] 
r 1.103314457 _0_ MAC  --- 2 ACK 5 [0 0 8 0] [energy 0.498526] 
r 1.103954028 _8_ MAC  --- 2 tcp 100 [0 8 0 800] [energy 0.498353] ------- [0:0 7:0 30 8] [1 0] 1 0
s 1.105234457 _0_ MAC  --- 3 tcp 107 [0 8 0 800] [energy 0.498526] ------- [0:0 7:0 30 8] [2 0] 0 0
s 1.109042886 _8_ MAC  --- 3 ACK 5 [0 0 8 0] [energy 0.498199] 
r 1.109395314 _0_ MAC  --- 3 ACK 5 [0 0 8 0] [energy 0.498436] 
r 1.110034886 _8_ MAC  --- 3 tcp 100 [0 8 0 800] [energy 0.498199] ------- [0:0 7:0 30 8] [2 0] 1 0
s 1.111954886 _8_ MAC  --- 2 tcp 107 [0 6 8 800] [energy 0.498199] ------- [0:0 7:0 29 6] [1 0] 1 0
s 1.115763501 _6_ MAC  --- 2 ACK 5 [0 8 6 0] [energy 0.498346] 
r 1.116116116 _8_ MAC  --- 2 ACK 5 [0 8 6 0] [energy 0.498109] 
r 1.116755501 _6_ MAC  --- 2 tcp 100 [0 6 8 800] [energy 0.498346] ------- [0:0 7:0 29 6] [1 0] 2 0
s 1.116756116 _8_ MAC  --- 3 tcp 107 [0 6 8 800] [energy 0.498109] ------- [0:0 7:0 29 6] [2 0] 1 0
s 1.120564731 _6_ MAC  --- 3 ACK 5 [0 8 6 0] [energy 0.498192] 
r 1.120917346 _8_ MAC  --- 3 ACK 5 [0 8 6 0] [energy 0.498018] 
r 1.121556731 _6_ MAC  --- 3 tcp 100 [0 6 8 800] [energy 0.498192] ------- [0:0 7:0 29 6] [2 0] 2 0
s 1.121556731 _6_ MAC  --- 2 tcp 107 [0 7 6 800] [energy 0.498192] ------- [0:0 7:0 28 7] [1 0] 2 0
s 1.125365066 _7_ MAC  --- 2 ACK 5 [0 6 7 0] [energy 0.498315] 
r 1.125717401 _6_ MAC  --- 2 ACK 5 [0 6 7 0] [energy 0.498102] 
r 1.126357066 _7_ MAC  --- 2 tcp 100 [0 7 6 800] [energy 0.498315] ------- [0:0 7:0 28 7] [1 0] 3 0
r 1.126382066 _7_ AGT  --- 2 tcp 100 [0 7 6 800] [energy 0.498315] ------- [0:0 7:0 28 7] [1 0] 3 0
s 1.126382066 _7_ AGT  --- 4 ack 40 [0 0 0 0] [energy 0.498315] ------- [7:0 0:0 32 0] [1 0] 0 0
s 1.127637401 _6_ MAC  --- 3 tcp 107 [0 7 6 800] [energy 0.498102] ------- [0:0 7:0 28 7] [2 0] 2 0
s 1.131445736 _7_ MAC  --- 3 ACK 5 [0 6 7 0] [energy 0.498161] 
r 1.131798071 _6_ MAC  --- 3 ACK 5 [0 6 7 0] [energy 0.498012] 
r 1.132437736 _7_ MAC  --- 3 tcp 100 [0 7 6 800] [energy 0.498161] ------- [0:0 7:0 28 7] [2 0] 3 0
r 1.132462736 _7_ AGT  --- 3 tcp 100 [0 7 6 800] [energy 0.498161] ------- [0:0 7:0 28 7] [2 0] 3 0
s 1.132462736 _7_ AGT  --- 5 ack 40 [0 0 0 0] [energy 0.498161] ------- [7:0 0:0 32 0] [2 0] 0 0
s 1.134357736 _7_ MAC  --- 4 ack 67 [0 6 7 800] [energy 0.498161] ------- [7:0 0:0 30 6] [1 0] 0 0
s 1.136886071 _6_ MAC  --- 4 ACK 5 [0 7 6 0] [energy 0.497914] 
r 1.137238406 _7_ MAC  --- 4 ACK 5 [0 7 6 0] [energy 0.498099] 
r 1.137878071 _6_ MAC  --- 4 ack 60 [0 6 7 800] [energy 0.497914] ------- [7:0 0:0 30 6] [1 0] 1 0
s 1.139158406 _7_ MAC  --- 5 ack 67 [0 6 7 800] [energy 0.498099] ------- [7:0 0:0 30 6] [2 0] 0 0
s 1.141686741 _6_ MAC  --- 5 ACK 5 [0 7 6 0] [energy 0.497816] 
r 1.142039077 _7_ MAC  --- 5 ACK 5 [0 7 6 0] [energy 0.498037] 
r 1.142678741 _6_ MAC  --- 5 ack 60 [0 6 7 800] [energy 0.497816] ------- [7:0 0:0 30 6] [2 0] 1 0
s 1.144598741 _6_ MAC  --- 4 ack 67 [0 8 6 800] [energy 0.497816] ------- [7:0 0:0 29 8] [1 0] 1 0
s 1.147127357 _8_ MAC  --- 4 ACK 5 [0 6 8 0] [energy 0.497629] 
r 1.147479972 _6_ MAC  --- 4 ACK 5 [0 6 8 0] [energy 0.497753] 
r 1.148119357 _8_ MAC  --- 4 ack 60 [0 8 6 800] [energy 0.497629] ------- [7:0 0:0 29 8] [1 0] 2 0
s 1.148809357 _8_ MAC  --- 4 ack 67 [0 0 8 800] [energy 0.497629] ------- [7:0 0:0 28 0] [1 0] 2 0
s 1.151337786 _0_ MAC  --- 4 ACK 5 [0 8 0 0] [energy 0.497814] 
r 1.151690216 _8_ MAC  --- 4 ACK 5 [0 8 0 0] [energy 0.497567] 
r 1.152329786 _0_ MAC  --- 4 ack 60 [0 0 8 800] [energy 0.497814] ------- [7:0 0:0 28 0] [1 0] 3 0
r 1.152354786 _0_ AGT  --- 4 ack 60 [0 0 8 800] [energy 0.497814] ------- [7:0 0:0 28 0] [1 0] 3 0
s 1.152354786 _0_ AGT  --- 6 tcp 592 [0 0 0 0] [energy 0.497814] ------- [0:0 7:0 32 0] [3 0] 0 0
s 1.152354786 _0_ AGT  --- 7 tcp 592 [0 0 0 0] [energy 0.497814] ------- [0:0 7:0 32 0] [4 0] 0 0
s 1.154939786 _0_ MAC  --- 6 tcp 107 [0 8 0 800] [energy 0.497814] ------- [0:0 7:0 30 8] [3 0] 0 0
s 1.158748216 _8_ MAC  --- 6 ACK 5 [0 0 8 0] [energy 0.497413] 
r 1.159100646 _0_ MAC  --- 6 ACK 5 [0 0 8 0] [energy 0.497724] 
s 1.159383972 _6_ MAC  --- 5 ack 67 [0 8 6 800] [energy 0.497608] ------- [7:0 0:0 29 8] [2 0] 1 0
r 1.159740216 _8_ MAC  --- 6 tcp 100 [0 8 0 800] [energy 0.497362] ------- [0:0 7:0 30 8] [3 0] 1 0
s 1.161912587 _8_ MAC  --- 5 ACK 5 [0 6 8 0] [energy 0.497315] 
r 1.162265202 _6_ MAC  --- 5 ACK 5 [0 6 8 0] [energy 0.497545] 
s 1.162748646 _0_ MAC  --- 7 tcp 107 [0 8 0 800] [energy 0.497665] ------- [0:0 7:0 30 8] [4 0] 0 0
r 1.162904587 _8_ MAC  --- 5 ack 60 [0 8 6 800] [energy 0.497236] ------- [7:0 0:0 29 8] [2 0] 2 0
s 1.166557076 _8_ MAC  --- 7 ACK 5 [0 0 8 0] [energy 0.497161] 
r 1.166909506 _0_ MAC  --- 7 ACK 5 [0 0 8 0] [energy 0.497575] 
s 1.167229076 _8_ MAC  --- 6 tcp 107 [0 6 8 800] [energy 0.497161] ------- [0:0 7:0 29 6] [3 0] 1 0
r 1.167549076 _8_ MAC  --- 7 tcp 100 [0 8 0 800] [energy 0.497082] ------- [0:0 7:0 30 8] [4 0] 1 0
s 1.171037691 _6_ MAC  --- 6 ACK 5 [0 8 6 0] [energy 0.497305] 
r 1.171390306 _8_ MAC  --- 6 ACK 5 [0 8 6 0] [energy 0.497070] 
r 1.172029691 _6_ MAC  --- 6 tcp 100 [0 6 8 800] [energy 0.497305] ------- [0:0 7:0 29 6] [3 0] 2 0
s 1.172350306 _8_ MAC  --- 5 ack 67 [0 0 8 800] [energy 0.497070] ------- [7:0 0:0 28 0] [2 0] 2 0
s 1.174878737 _0_ MAC  --- 5 ACK 5 [0 8 0 0] [energy 0.497390] 
r 1.175231167 _8_ MAC  --- 5 ACK 5 [0 8 0 0] [energy 0.497008] 
r 1.175870737 _0_ MAC  --- 5 ack 60 [0 0 8 800] [energy 0.497390] ------- [7:0 0:0 28 0] [2 0] 3 0
r 1.175895737 _0_ AGT  --- 5 ack 60 [0 0 8 800] [energy 0.497390] ------- [7:0 0:0 28 0] [2 0] 3 0
s 1.175895737 _0_ AGT  --- 8 tcp 592 [0 0 0 0] [energy 0.497390] ------- [0:0 7:0 32 0] [5 0] 0 0
s 1.175895737 _0_ AGT  --- 9 tcp 592 [0 0 0 0] [energy 0.497390] ------- [0:0 7:0 32 0] [6 0] 0 0
s 1.176511167 _8_ MAC  --- 7 tcp 107 [0 6 8 800] [energy 0.497008] ------- [0:0 7:0 29 6] [4 0] 1 0
s 1.180319782 _6_ MAC  --- 7 ACK 5 [0 8 6 0] [energy 0.497092] 
r 1.180672397 _8_ MAC  --- 7 ACK 5 [0 8 6 0] [energy 0.496918] 
r 1.181311782 _6_ MAC  --- 7 tcp 100 [0 6 8 800] [energy 0.497092] ------- [0:0 7:0 29 6] [4 0] 2 0
s 1.182591782 _6_ MAC  --- 6 tcp 107 [0 7 6 800] [energy 0.497092] ------- [0:0 7:0 28 7] [3 0] 2 0
s 1.186400117 _7_ MAC  --- 6 ACK 5 [0 6 7 0] [energy 0.497300] 
r 1.186752452 _6_ MAC  --- 6 ACK 5 [0 6 7 0] [energy 0.497002] 
r 1.187392117 _7_ MAC  --- 6 tcp 100 [0 7 6 800] [energy 0.497300] ------- [0:0 7:0 28 7] [3 0] 3 0
r 1.187417117 _7_ AGT  --- 6 tcp 100 [0 7 6 800] [energy 0.497300] ------- [0:0 7:0 28 7] [3 0] 3 0
s 1.187417117 _7_ AGT  --- 10 ack 40 [0 0 0 0] [energy 0.497300] ------- [7:0 0:0 32 0] [3 0] 0 0
s 1.188032452 _6_ MAC  --- 7 tcp 107 [0 7 6 800] [energy 0.497002] ------- [0:0 7:0 28 7] [4 0] 2 0
s 1.191840787 _7_ MAC  --- 7 ACK 5 [0 6 7 0] [energy 0.497146] 
r 1.192193122 _6_ MAC  --- 7 ACK 5 [0 6 7 0] [energy 0.496911] 
r 1.192832787 _7_ MAC  --- 7 tcp 100 [0 7 6 800] [energy 0.497146] ------- [0:0 7:0 28 7] [4 0] 3 0
r 1.192857787 _7_ AGT  --- 7 tcp 100 [0 7 6 800] [energy 0.497146] ------- [0:0 7:0 28 7] [4 0] 3 0
s 1.192857787 _7_ AGT  --- 11 ack 40 [0 0 0 0] [energy 0.497146] ------- [7:0 0:0 32 0] [4 0] 0 0
s 1.192944737 _0_ MAC  --- 8 tcp 107 [0 8 0 800] [energy 0.497129] ------- [0:0 7:0 30 8] [5 0] 0 0
s 1.196753167 _8_ MAC  --- 8 ACK 5 [0 0 8 0] [energy 0.496590] 
r 1.197105598 _0_ MAC  --- 8 ACK 5 [0 0 8 0] [energy 0.497039] 
s 1.197425598 _0_ MAC  --- 9 tcp 107 [0 8 0 800] [energy 0.497039] ------- [0:0 7:0 30 8] [6 0] 0 0
r 1.197745167 _8_ MAC  --- 8 tcp 100 [0 8 0 800] [energy 0.496511] ------- [0:0 7:0 30 8] [5 0] 1 0
s 1.201234029 _8_ MAC  --- 9 ACK 5 [0 0 8 0] [energy 0.496436] 
r 1.201586459 _0_ MAC  --- 9 ACK 5 [0 0 8 0] [energy 0.496949] 
r 1.202226029 _8_ MAC  --- 9 tcp 100 [0 8 0 800] [energy 0.496436] ------- [0:0 7:0 30 8] [6 0] 1 0
s 1.203186029 _8_ MAC  --- 8 tcp 107 [0 6 8 800] [energy 0.496436] ------- [0:0 7:0 29 6] [5 0] 1 0
s 1.206994644 _6_ MAC  --- 8 ACK 5 [0 8 6 0] [energy 0.496584] 
r 1.207347259 _8_ MAC  --- 8 ACK 5 [0 8 6 0] [energy 0.496346] 
r 1.207986644 _6_ MAC  --- 8 tcp 100 [0 6 8 800] [energy 0.496584] ------- [0:0 7:0 29 6] [5 0] 2 0
s 1.208356644 _6_ MAC  --- 8 tcp 107 [0 7 6 800] [energy 0.496584] ------- [0:0 7:0 28 7] [5 0] 2 0
s 1.212164979 _7_ MAC  --- 8 ACK 5 [0 6 7 0] [energy 0.496732] 
r 1.212517314 _6_ MAC  --- 8 ACK 5 [0 6 7 0] [energy 0.496493] 
r 1.213156979 _7_ MAC  --- 8 tcp 100 [0 7 6 800] [energy 0.496732] ------- [0:0 7:0 28 7] [5 0] 3 0
r 1.213181979 _7_ AGT  --- 8 tcp 100 [0 7 6 800] [energy 0.496732] ------- [0:0 7:0 28 7] [5 0] 3 0
s 1.213181979 _7_ AGT  --- 12 ack 40 [0 0 0 0] [energy 0.496732] ------- [7:0 0:0 32 0] [5 0] 0 0
s 1.214116979 _7_ MAC  --- 10 ack 67 [0 6 7 800] [energy 0.496732] ------- [7:0 0:0 30 6] [3 0] 0 0
s 1.216645314 _6_ MAC  --- 10 ACK 5 [0 7 6 0] [energy 0.496395] 
r 1.216997649 _7_ MAC  --- 10 ACK 5 [0 7 6 0] [energy 0.496670] 
r 1.217637314 _6_ MAC  --- 10 ack 60 [0 6 7 800] [energy 0.496395] ------- [7:0 0:0 30 6] [3 0] 1 0
s 1.218917649 _7_ MAC  --- 11 ack 67 [0 6 7 800] [energy 0.496670] ------- [7:0 0:0 30 6] [4 0] 0 0
s 1.221445984 _6_ MAC  --- 11 ACK 5 [0 7 6 0] [energy 0.496297] 
r 1.221798319 _7_ MAC  --- 11 ACK 5 [0 7 6 0] [energy 0.496607] 
s 1.222118319 _7_ MAC  --- 12 ack 67 [0 6 7 800] [energy 0.496607] ------- [7:0 0:0 30 6] [5 0] 0 0
r 1.222437984 _6_ MAC  --- 11 ack 60 [0 6 7 800] [energy 0.496246] ------- [7:0 0:0 30 6] [4 0] 1 0
s 1.224646654 _6_ MAC  --- 12 ACK 5 [0 7 6 0] [energy 0.496199] 
r 1.224998989 _7_ MAC  --- 12 ACK 5 [0 7 6 0] [energy 0.496545] 
s 1.225318654 _6_ MAC  --- 10 ack 67 [0 8 6 800] [energy 0.496199] ------- [7:0 0:0 29 8] [3 0] 1 0
r 1.225638654 _6_ MAC  --- 12 ack 60 [0 6 7 800] [energy 0.496148] ------- [7:0 0:0 30 6] [5 0] 1 0
s 1.227847269 _8_ MAC  --- 10 ACK 5 [0 6 8 0] [energy 0.495985] 
r 1.228199884 _6_ MAC  --- 10 ACK 5 [0 6 8 0] [energy 0.496137] 
r 1.228839269 _8_ MAC  --- 10 ack 60 [0 8 6 800] [energy 0.495985] ------- [7:0 0:0 29 8] [3 0] 2 0
s 1.230119269 _8_ MAC  --- 9 tcp 107 [0 6 8 800] [energy 0.495985] ------- [0:0 7:0 29 6] [6 0] 1 0
s 1.233927884 _6_ MAC  --- 9 ACK 5 [0 8 6 0] [energy 0.495983] 
r 1.234280500 _8_ MAC  --- 9 ACK 5 [0 8 6 0] [energy 0.495894] 
r 1.234919884 _6_ MAC  --- 9 tcp 100 [0 6 8 800] [energy 0.495983] ------- [0:0 7:0 29 6] [6 0] 2 0
s 1.235880500 _8_ MAC  --- 10 ack 67 [0 0 8 800] [energy 0.495894] ------- [7:0 0:0 28 0] [3 0] 2 0
s 1.238408931 _0_ MAC  --- 10 ACK 5 [0 8 0 0] [energy 0.496355] 
r 1.238761363 _8_ MAC  --- 10 ACK 5 [0 8 0 0] [energy 0.495832] 
r 1.239400931 _0_ MAC  --- 10 ack 60 [0 0 8 800] [energy 0.496355] ------- [7:0 0:0 28 0] [3 0] 3 0
r 1.239425931 _0_ AGT  --- 10 ack 60 [0 0 8 800] [energy 0.496355] ------- [7:0 0:0 28 0] [3 0] 3 0
s 1.239425931 _0_ AGT  --- 13 tcp 592 [0 0 0 0] [energy 0.496355] ------- [0:0 7:0 32 0] [7 0] 0 0
s 1.239425931 _0_ AGT  --- 14 tcp 592 [0 0 0 0] [energy 0.496355] ------- [0:0 7:0 32 0] [8 0] 0 0
s 1.240730931 _0_ MAC  --- 13 tcp 107 [0 8 0 800] [energy 0.496355] ------- [0:0 7:0 30 8] [7 0] 0 0
s 1.244539363 _8_ MAC  --- 13 ACK 5 [0 0 8 0] [energy 0.495678] 
r 1.244891795 _0_ MAC  --- 13 ACK 5 [0 0 8 0] [energy 0.496265] 
r 1.245531363 _8_ MAC  --- 13 tcp 100 [0 8 0 800] [energy 0.495678] ------- [0:0 7:0 30 8] [7 0] 1 0
s 1.245851795 _0_ MAC  --- 14 tcp 107 [0 8 0 800] [energy 0.496265] ------- [0:0 7:0 30 8] [8 0] 0 0
s 1.245901363 _8_ MAC  --- 13 tcp 107 [0 6 8 800] [energy 0.495599] ------- [0:0 7:0 29 6] [7 0] 1 0
D 1.249517978 _6_ MAC  LQI 13 tcp 107 [0 6 8 800] [energy 0.495675] ------- [0:0 7:0 29 6] [7 0] 1 0
s 1.250651795 _0_ MAC  --- 14 tcp 107 [0 8 0 800] [energy 0.496177] ------- [0:0 7:0 30 8] [8 0] 0 0
s 1.254460227 _8_ MAC  --- 14 ACK 5 [0 0 8 0] [energy 0.495436] 
r 1.254812659 _0_ MAC  --- 14 ACK 5 [0 0 8 0] [energy 0.496087] 
s 1.255079884 _6_ MAC  --- 11 ack 67 [0 8 6 800] [energy 0.495588] ------- [7:0 0:0 29 8] [4 0] 1 0
r 1.255452227 _8_ MAC  --- 14 tcp 100 [0 8 0 800] [energy 0.495385] ------- [0:0 7:0 30 8] [8 0] 1 0
s 1.257608500 _8_ MAC  --- 11 ACK 5 [0 6 8 0] [energy 0.495338] 
r 1.257961115 _6_ MAC  --- 11 ACK 5 [0 6 8 0] [energy 0.495526] 
r 1.258600500 _8_ MAC  --- 11 ack 60 [0 8 6 800] [energy 0.495338] ------- [7:0 0:0 29 8] [4 0] 2 0
s 1.258920500 _8_ MAC  --- 13 tcp 107 [0 6 8 800] [energy 0.495338] ------- [0:0 7:0 29 6] [7 0] 1 0
s 1.262729115 _6_ MAC  --- 13 ACK 5 [0 8 6 0] [energy 0.495372] 
r 1.263081730 _8_ MAC  --- 13 ACK 5 [0 8 6 0] [energy 0.495248] 
r 1.263721115 _6_ MAC  --- 13 tcp 100 [0 6 8 800] [energy 0.495372] ------- [0:0 7:0 29 6] [7 0] 2 0
s 1.264041730 _8_ MAC  --- 14 tcp 107 [0 6 8 800] [energy 0.495248] ------- [0:0 7:0 29 6] [8 0] 1 0
s 1.267850345 _6_ MAC  --- 14 ACK 5 [0 8 6 0] [energy 0.495218] 
r 1.268202960 _8_ MAC  --- 14 ACK 5 [0 8 6 0] [energy 0.495158] 
r 1.268842345 _6_ MAC  --- 14 tcp 100 [0 6 8 800] [energy 0.495218] ------- [0:0 7:0 29 6] [8 0] 2 0
s 1.270122960 _8_ MAC  --- 11 ack 67 [0 0 8 800] [energy 0.495158] ------- [7:0 0:0 28 0] [4 0] 2 0
s 1.272651393 _0_ MAC  --- 11 ACK 5 [0 8 0 0] [energy 0.495756] 
r 1.273003825 _8_ MAC  --- 11 ACK 5 [0 8 0 0] [energy 0.495096] 
r 1.273643393 _0_ MAC  --- 11 ack 60 [0 0 8 800] [energy 0.495756] ------- [7:0 0:0 28 0] [4 0] 3 0
r 1.273668393 _0_ AGT  --- 11 ack 60 [0 0 8 800] [energy 0.495756] ------- [7:0 0:0 28 0] [4 0] 3 0
s 1.273668393 _0_ AGT  --- 15 tcp 592 [0 0 0 0] [energy 0.495756] ------- [0:0 7:0 32 0] [9 0] 0 0
s 1.273668393 _0_ AGT  --- 16 tcp 592 [0 0 0 0] [energy 0.495756] ------- [0:0 7:0 32 0] [10 0] 0 0
s 1.275613393 _0_ MAC  --- 15 tcp 107 [0 8 0 800] [energy 0.495756] ------- [0:0 7:0 30 8] [9 0] 0 0
s 1.279421825 _8_ MAC  --- 15 ACK 5 [0 0 8 0] [energy 0.494942] 
r 1.279774258 _0_ MAC  --- 15 ACK 5 [0 0 8 0] [energy 0.495666] 
r 1.280413825 _8_ MAC  --- 15 tcp 100 [0 8 0 800] [energy 0.494942] ------- [0:0 7:0 30 8] [9 0] 1 0
s 1.281694258 _0_ MAC  --- 16 tcp 107 [0 8 0 800] [energy 0.495666] ------- [0:0 7:0 30 8] [10 0] 0 0
s 1.285502691 _8_ MAC  --- 16 ACK 5 [0 0 8 0] [energy 0.494788] 
r 1.285855124 _0_ MAC  --- 16 ACK 5 [0 0 8 0] [energy 0.495576] 
r 1.286494691 _8_ MAC  --- 16 tcp 100 [0 8 0 800] [energy 0.494788] ------- [0:0 7:0 30 8] [10 0] 1 0
s 1.286506345 _6_ MAC  --- 12 ack 67 [0 8 6 800] [energy 0.494985] ------- [7:0 0:0 29 8] [5 0] 1 0
s 1.289034960 _8_ MAC  --- 12 ACK 5 [0 6 8 0] [energy 0.494690] 
r 1.289387576 _6_ MAC  --- 12 ACK 5 [0 6 8 0] [energy 0.494923] 
r 1.290026960 _8_ MAC  --- 12 ack 60 [0 8 6 800] [energy 0.494690] ------- [7:0 0:0 29 8] [5 0] 2 0
s 1.290347576 _6_ MAC  --- 9 tcp 107 [0 7 6 800] [energy 0.494923] ------- [0:0 7:0 28 7] [6 0] 2 0
s 1.294155911 _7_ MAC  --- 9 ACK 5 [0 6 7 0] [energy 0.495402] 
r 1.294508246 _6_ MAC  --- 9 ACK 5 [0 6 7 0] [energy 0.494833] 
s 1.294828246 _6_ MAC  --- 13 tcp 107 [0 7 6 800] [energy 0.494833] ------- [0:0 7:0 28 7] [7 0] 2 0
s 1.294954960 _8_ MAC  --- 15 tcp 107 [0 6 8 800] [energy 0.494524] ------- [0:0 7:0 29 6] [9 0] 1 0
r 1.295147911 _7_ MAC  --- 9 tcp 100 [0 7 6 800] [energy 0.495301] ------- [0:0 7:0 28 7] [6 0] 3 0