M 1.00000 8 (485.22, 140.73, 0.00), (650.00, 120.00), 30.00
M 1.00000 9 (650.22, 140.73, 0.00), (485.00, 120.00), 30.00
s 1.000000000 _0_ AGT  --- 0 tcp 40 [0 0 0 0] [energy 0.900000] ------- [0:0 7:0 32 0] [0 0] 0 0
s 1.002585000 _0_ MAC  --- 0 AODV 55 [0 ffffffff 0 800] [energy 0.900000] ------- [0:255 -1:255 30 0] [0x2 1 1 [7 0] [0 4]] (REQUEST)
r 1.005177129 _1_ MAC  --- 0 AODV 48 [0 ffffffff 0 800] [energy 0.899443] ------- [0:255 -1:255 30 0] [0x2 1 1 [7 0] [0 4]] (REQUEST)
r 1.005177262 _2_ MAC  --- 0 AODV 48 [0 ffffffff 0 800] [energy 0.899443] ------- [0:255 -1:255 30 0] [0x2 1 1 [7 0] [0 4]] (REQUEST)
r 1.005177383 _3_ MAC  --- 0 AODV 48 [0 ffffffff 0 800] [energy 0.899443] ------- [0:255 -1:255 30 0] [0x2 1 1 [7 0] [0 4]] (REQUEST)
r 1.005177427 _8_ MAC  --- 0 AODV 48 [0 ffffffff 0 800] [energy 0.899443] ------- [0:255 -1:255 30 0] [0x2 1 1 [7 0] [0 4]] (REQUEST)
r 1.005177443 _14_ MAC  --- 0 AODV 48 [0 ffffffff 0 800] [energy 0.899443] ------- [0:255 -1:255 30 0] [0x2 1 1 [7 0] [0 4]] (REQUEST)
r 1.005177478 _15_ MAC  --- 0 AODV 48 [0 ffffffff 0 800] [energy 0.899443] ------- [0:255 -1:255 30 0] [0x2 1 1 [7 0] [0 4]] (REQUEST)
r 1.005177516 _4_ MAC  --- 0 AODV 48 [0 ffffffff 0 800] [energy 0.899443] ------- [0:255 -1:255 30 0] [0x2 1 1 [7 0] [0 4]] (REQUEST)
r 1.005177527 _17_ MAC  --- 0 AODV 48 [0 ffffffff 0 800] [energy 0.899443] ------- [0:255 -1:255 30 0] [0x2 1 1 [7 0] [0 4]] (REQUEST)
r 1.005177573 _16_ MAC  --- 0 AODV 48 [0 ffffffff 0 800] [energy 0.899443] ------- [0:255 -1:255 30 0] [0x2 1 1 [7 0] [0 4]] (REQUEST)
r 1.005177621 _13_ MAC  --- 0 AODV 48 [0 ffffffff 0 800] [energy 0.899443] ------- [0:255 -1:255 30 0] [0x2 1 1 [7 0] [0 4]] (REQUEST)
r 1.005177627 _39_ MAC  --- 0 AODV 48 [0 ffffffff 0 800] [energy 0.899443] ------- [0:255 -1:255 30 0] [0x2 1 1 [7 0] [0 4]] (REQUEST)
r 1.005177647 _5_ MAC  --- 0 AODV 48 [0 ffffffff 0 800] [energy 0.899443] ------- [0:255 -1:255 30 0] [0x2 1 1 [7 0] [0 4]] (REQUEST)
r 1.005177687 _38_ MAC  --- 0 AODV 48 [0 ffffffff 0 800] [energy 0.899443] ------- [0:255 -1:255 30 0] [0x2 1 1 [7 0] [0 4]] (REQUEST)
r 1.005177695 _9_ MAC  --- 0 AODV 48 [0 ffffffff 0 800] [energy 0.899443] ------- [0:255 -1:255 30 0] [0x2 1 1 [7 0] [0 4]] (REQUEST)
r 1.005177732 _43_ MAC  --- 0 AODV 48 [0 ffffffff 0 800] [energy 0.899443] ------- [0:255 -1:255 30 0] [0x2 1 1 [7 0] [0 4]] (REQUEST)
r 1.005177751 _19_ MAC  --- 0 AODV 48 [0 ffffffff 0 800] [energy 0.899443] ------- [0:255 -1:255 30 0] [0x2 1 1 [7 0] [0 4]] (REQUEST)
r 1.005177791 _10_ MAC  --- 0 AODV 48 [0 ffffffff 0 800] [energy 0.899443] ------- [0:255 -1:255 30 0] [0x2 1 1 [7 0] [0 4]] (REQUEST)
s 1.007947414 _14_ MAC  --- 0 AODV 55 [0 ffffffff e 800] [energy 0.899443] ------- [14:255 -1:255 29 0] [0x2 2 1 [7 0] [0 4]] (REQUEST)
s 1.010491696 _5_ MAC  --- 0 AODV 55 [0 ffffffff 5 800] [energy 0.899057] ------- [5:255 -1:255 29 0] [0x2 2 1 [7 0] [0 4]] (REQUEST)
r 1.010539532 _8_ MAC  --- 0 AODV 48 [0 ffffffff e 800] [energy 0.898721] ------- [14:255 -1:255 29 0] [0x2 2 1 [7 0] [0 4]] (REQUEST)
r 1.010539673 _39_ MAC  --- 0 AODV 48 [0 ffffffff e 800] [energy 0.898721] ------- [14:255 -1:255 29 0] [0x2 2 1 [7 0] [0 4]] (REQUEST)
r 1.010539674 _38_ MAC  --- 0 AODV 48 [0 ffffffff e 800] [energy 0.898721] ------- [14:255 -1:255 29 0] [0x2 2 1 [7 0] [0 4]] (REQUEST)
r 1.010539748 _13_ MAC  --- 0 AODV 48 [0 ffffffff e 800] [energy 0.898721] ------- [14:255 -1:255 29 0] [0x2 2 1 [7 0] [0 4]] (REQUEST)
r 1.010539748 _15_ MAC  --- 0 AODV 48 [0 ffffffff e 800] [energy 0.898721] ------- [14:255 -1:255 29 0] [0x2 2 1 [7 0] [0 4]] (REQUEST)
r 1.010539841 _17_ MAC  --- 0 AODV 48 [0 ffffffff e 800] [energy 0.898721] ------- [14:255 -1:255 29 0] [0x2 2 1 [7 0] [0 4]] (REQUEST)
r 1.010539857 _0_ MAC  --- 0 AODV 48 [0 ffffffff e 800] [energy 0.898760] ------- [14:255 -1:255 29 0] [0x2 2 1 [7 0] [0 4]] (REQUEST)
r 1.010539914 _19_ MAC  --- 0 AODV 48 [0 ffffffff e 800] [energy 0.898721] ------- [14:255 -1:255 29 0] [0x2 2 1 [7 0] [0 4]] (REQUEST)
r 1.010539914 _16_ MAC  --- 0 AODV 48 [0 ffffffff e 800] [energy 0.898721] ------- [14:255 -1:255 29 0] [0x2 2 1 [7 0] [0 4]] (REQUEST)
r 1.010539941 _1_ MAC  --- 0 AODV 48 [0 ffffffff e 800] [energy 0.898721] ------- [14:255 -1:255 29 0] [0x2 2 1 [7 0] [0 4]] (REQUEST)
r 1.010539952 _43_ MAC  --- 0 AODV 48 [0 ffffffff e 800] [energy 0.898721] ------- [14:255 -1:255 29 0] [0x2 2 1 [7 0] [0 4]] (REQUEST)
r 1.010539953 _37_ MAC  --- 0 AODV 48 [0 ffffffff e 800] [energy 0.898760] ------- [14:255 -1:255 29 0] [0x2 2 1 [7 0] [0 4]] (REQUEST)
r 1.010539971 _26_ MAC  --- 0 AODV 48 [0 ffffffff e 800] [energy 0.898760] ------- [14:255 -1:255 29 0] [0x2 2 1 [7 0] [0 4]] (REQUEST)
r 1.010539972 _25_ MAC  --- 0 AODV 48 [0 ffffffff e 800] [energy 0.898760] ------- [14:255 -1:255 29 0] [0x2 2 1 [7 0] [0 4]] (REQUEST)
r 1.010540028 _2_ MAC  --- 0 AODV 48 [0 ffffffff e 800] [energy 0.898721] ------- [14:255 -1:255 29 0] [0x2 2 1 [7 0] [0 4]] (REQUEST)
r 1.010540080 _9_ MAC  --- 0 AODV 48 [0 ffffffff e 800] [energy 0.898721] ------- [14:255 -1:255 29 0] [0x2 2 1 [7 0] [0 4]] (REQUEST)
r 1.010540096 _6_ MAC  --- 0 AODV 48 [0 ffffffff e 800] [energy 0.898760] ------- [14:255 -1:255 29 0] [0x2 2 1 [7 0] [0 4]] (REQUEST)
r 1.010540102 _3_ MAC  --- 0 AODV 48 [0 ffffffff e 800] [energy 0.898721] ------- [14:255 -1:255 29 0] [0x2 2 1 [7 0] [0 4]] (REQUEST)
r 1.010540145 _24_ MAC  --- 0 AODV 48 [0 ffffffff e 800] [energy 0.898760] ------- [14:255 -1:255 29 0] [0x2 2 1 [7 0] [0 4]] (REQUEST)
r 1.010540198 _10_ MAC  --- 0 AODV 48 [0 ffffffff e 800] [energy 0.898721] ------- [14:255 -1:255 29 0] [0x2 2 1 [7 0] [0 4]] (REQUEST)
r 1.010540204 _4_ MAC  --- 0 AODV 48 [0 ffffffff e 800] [energy 0.898721] ------- [14:255 -1:255 29 0] [0x2 2 1 [7 0] [0 4]] (REQUEST)
s 1.010559737 _4_ MAC  --- 0 AODV 55 [0 ffffffff 4 800] [energy 0.898721] ------- [4:255 -1:255 29 0] [0x2 2 1 [7 0] [0 4]] (REQUEST)
s 1.010582486 _9_ MAC  --- 0 AODV 55 [0 ffffffff 9 800] [energy 0.898703] ------- [9:255 -1:255 29 0] [0x2 2 1 [7 0] [0 4]] (REQUEST)
D 1.012511871 _3_ MAC  LQI 0 AODV 55 [0 ffffffff 4 800] [energy 0.898467] ------- [4:255 -1:255 29 0] [0x2 2 1 [7 0] [0 4]] (REQUEST)
D 1.012511996 _2_ MAC  LQI 0 AODV 55 [0 ffffffff 4 800] [energy 0.898467] ------- [4:255 -1:255 29 0] [0x2 2 1 [7 0] [0 4]] (REQUEST)
D 1.012512128 _1_ MAC  LQI 0 AODV 55 [0 ffffffff 4 800] [energy 0.898467] ------- [4:255 -1:255 29 0] [0x2 2 1 [7 0] [0 4]] (REQUEST)
D 1.012512253 _0_ MAC  LQI 0 AODV 55 [0 ffffffff 4 800] [energy 0.898506] ------- [4:255 -1:255 29 0] [0x2 2 1 [7 0] [0 4]] (REQUEST)
D 1.012534725 _17_ MAC  LQI 0 AODV 55 [0 ffffffff 9 800] [energy 0.898465] ------- [9:255 -1:255 29 0] [0x2 2 1 [7 0] [0 4]] (REQUEST)
D 1.012534818 _15_ MAC  LQI 0 AODV 55 [0 ffffffff 9 800] [energy 0.898465] ------- [9:255 -1:255 29 0] [0x2 2 1 [7 0] [0 4]] (REQUEST)
D 1.012534820 _11_ MAC  LQI 0 AODV 55 [0 ffffffff 9 800] [energy 0.898542] ------- [9:255 -1:255 29 0] [0x2 2 1 [7 0] [0 4]] (REQUEST)
D 1.012535024 _39_ MAC  LQI 0 AODV 55 [0 ffffffff 9 800] [energy 0.898465] ------- [9:255 -1:255 29 0] [0x2 2 1 [7 0] [0 4]] (REQUEST)
D 1.012535024 _41_ MAC  LQI 0 AODV 55 [0 ffffffff 9 800] [energy 0.898542] ------- [9:255 -1:255 29 0] [0x2 2 1 [7 0] [0 4]] (REQUEST)
D 1.012535026 _21_ MAC  LQI 0 AODV 55 [0 ffffffff 9 800] [energy 0.898542] ------- [9:255 -1:255 29 0] [0x2 2 1 [7 0] [0 4]] (REQUEST)
D 1.012535034 _8_ MAC  LQI 0 AODV 55 [0 ffffffff 9 800] [energy 0.898465] ------- [9:255 -1:255 29 0] [0x2 2 1 [7 0] [0 4]] (REQUEST)
D 1.012535069 _6_ MAC  LQI 0 AODV 55 [0 ffffffff 9 800] [energy 0.898504] ------- [9:255 -1:255 29 0] [0x2 2 1 [7 0] [0 4]] (REQUEST)
D 1.012535152 _14_ MAC  LQI 0 AODV 55 [0 ffffffff 9 800] [energy 0.898504] ------- [9:255 -1:255 29 0] [0x2 2 1 [7 0] [0 4]] (REQUEST)
D 1.012535154 _12_ MAC  LQI 0 AODV 55 [0 ffffffff 9 800] [energy 0.898542] ------- [9:255 -1:255 29 0] [0x2 2 1 [7 0] [0 4]] (REQUEST)
D 1.012535216 _26_ MAC  LQI 0 AODV 55 [0 ffffffff 9 800] [energy 0.898504] ------- [9:255 -1:255 29 0] [0x2 2 1 [7 0] [0 4]] (REQUEST)
D 1.012535216 _28_ MAC  LQI 0 AODV 55 [0 ffffffff 9 800] [energy 0.898542] ------- [9:255 -1:255 29 0] [0x2 2 1 [7 0] [0 4]] (REQUEST)
r 1.013174604 _10_ MAC  --- 0 AODV 48 [0 ffffffff 9 800] [energy 0.898465] ------- [9:255 -1:255 29 0] [0x2 2 1 [7 0] [0 4]] (REQUEST)
r 1.013174652 _16_ MAC  --- 0 AODV 48 [0 ffffffff 9 800] [energy 0.898465] ------- [9:255 -1:255 29 0] [0x2 2 1 [7 0] [0 4]] (REQUEST)
r 1.013174745 _43_ MAC  --- 0 AODV 48 [0 ffffffff 9 800] [energy 0.898465] ------- [9:255 -1:255 29 0] [0x2 2 1 [7 0] [0 4]] (REQUEST)
r 1.013174745 _44_ MAC  --- 0 AODV 48 [0 ffffffff 9 800] [energy 0.898542] ------- [9:255 -1:255 29 0] [0x2 2 1 [7 0] [0 4]] (REQUEST)
s 1.013191578 _8_ MAC  --- 0 AODV 55 [0 ffffffff 8 800] [energy 0.898465] ------- [8:255 -1:255 29 0] [0x2 2 1 [7 0] [0 4]] (REQUEST)
s 1.013274622 _15_ MAC  --- 0 AODV 55 [0 ffffffff f 800] [energy 0.898354] ------- [15:255 -1:255 29 0] [0x2 2 1 [7 0] [0 4]] (REQUEST)
D 1.015143782 _39_ MAC  LQI 0 AODV 55 [0 ffffffff 8 800] [energy 0.898108] ------- [8:255 -1:255 29 0] [0x2 2 1 [7 0] [0 4]] (REQUEST)
D 1.015143926 _38_ MAC  LQI 0 AODV 55 [0 ffffffff 8 800] [energy 0.898147] ------- [8:255 -1:255 29 0] [0x2 2 1 [7 0] [0 4]] (REQUEST)
D 1.015144004 _0_ MAC  LQI 0 AODV 55 [0 ffffffff 8 800] [energy 0.898147] ------- [8:255 -1:255 29 0] [0x2 2 1 [7 0] [0 4]] (REQUEST)
D 1.015144029 _13_ MAC  LQI 0 AODV 55 [0 ffffffff 8 800] [energy 0.898147] ------- [8:255 -1:255 29 0] [0x2 2 1 [7 0] [0 4]] (REQUEST)
D 1.015144112 _26_ MAC  LQI 0 AODV 55 [0 ffffffff 8 800] [energy 0.898147] ------- [8:255 -1:255 29 0] [0x2 2 1 [7 0] [0 4]] (REQUEST)
D 1.015144181 _25_ MAC  LQI 0 AODV 55 [0 ffffffff 8 800] [energy 0.898185] ------- [8:255 -1:255 29 0] [0x2 2 1 [7 0] [0 4]] (REQUEST)
D 1.015144196 _19_ MAC  LQI 0 AODV 55 [0 ffffffff 8 800] [energy 0.898147] ------- [8:255 -1:255 29 0] [0x2 2 1 [7 0] [0 4]] (REQUEST)
D 1.015144228 _37_ MAC  LQI 0 AODV 55 [0 ffffffff 8 800] [energy 0.898185] ------- [8:255 -1:255 29 0] [0x2 2 1 [7 0] [0 4]] (REQUEST)
D 1.015144394 _24_ MAC  LQI 0 AODV 55 [0 ffffffff 8 800] [energy 0.898185] ------- [8:255 -1:255 29 0] [0x2 2 1 [7 0] [0 4]] (REQUEST)
D 1.015226789 _16_ MAC  LQI 0 AODV 55 [0 ffffffff f 800] [energy 0.898100] ------- [15:255 -1:255 29 0] [0x2 2 1 [7 0] [0 4]] (REQUEST)
D 1.015226881 _43_ MAC  LQI 0 AODV 55 [0 ffffffff f 800] [energy 0.898100] ------- [15:255 -1:255 29 0] [0x2 2 1 [7 0] [0 4]] (REQUEST)
D 1.015226954 _9_ MAC  LQI 0 AODV 55 [0 ffffffff f 800] [energy 0.898139] ------- [15:255 -1:255 29 0] [0x2 2 1 [7 0] [0 4]] (REQUEST)
D 1.015227072 _10_ MAC  LQI 0 AODV 55 [0 ffffffff f 800] [energy 0.898100] ------- [15:255 -1:255 29 0] [0x2 2 1 [7 0] [0 4]] (REQUEST)
D 1.015227100 _1_ MAC  LQI 0 AODV 55 [0 ffffffff f 800] [energy 0.898100] ------- [15:255 -1:255 29 0] [0x2 2 1 [7 0] [0 4]] (REQUEST)
D 1.015227112 _2_ MAC  LQI 0 AODV 55 [0 ffffffff f 800] [energy 0.898100] ------- [15:255 -1:255 29 0] [0x2 2 1 [7 0] [0 4]] (REQUEST)
D 1.015227125 _3_ MAC  LQI 0 AODV 55 [0 ffffffff f 800] [energy 0.898100] ------- [15:255 -1:255 29 0] [0x2 2 1 [7 0] [0 4]] (REQUEST)
D 1.015227159 _44_ MAC  LQI 0 AODV 55 [0 ffffffff f 800] [energy 0.898177] ------- [15:255 -1:255 29 0] [0x2 2 1 [7 0] [0 4]] (REQUEST)
D 1.015227162 _6_ MAC  LQI 0 AODV 55 [0 ffffffff f 800] [energy 0.898139] ------- [15:255 -1:255 29 0] [0x2 2 1 [7 0] [0 4]] (REQUEST)
D 1.015227182 _4_ MAC  LQI 0 AODV 55 [0 ffffffff f 800] [energy 0.898139] ------- [15:255 -1:255 29 0] [0x2 2 1 [7 0] [0 4]] (REQUEST)
D 1.015227227 _5_ MAC  LQI 0 AODV 55 [0 ffffffff f 800] [energy 0.898177] ------- [15:255 -1:255 29 0] [0x2 2 1 [7 0] [0 4]] (REQUEST)
D 1.015227289 _11_ MAC  LQI 0 AODV 55 [0 ffffffff f 800] [energy 0.898177] ------- [15:255 -1:255 29 0] [0x2 2 1 [7 0] [0 4]] (REQUEST)
D 1.015227304 _21_ MAC  LQI 0 AODV 55 [0 ffffffff f 800] [energy 0.898177] ------- [15:255 -1:255 29 0] [0x2 2 1 [7 0] [0 4]] (REQUEST)
s 1.015682731 _2_ MAC  --- 0 AODV 55 [0 ffffffff 2 800] [energy 0.898100] ------- [2:255 -1:255 29 0] [0x2 2 1 [7 0] [0 4]] (REQUEST)
r 1.015783696 _14_ MAC  --- 0 AODV 48 [0 ffffffff 8 800] [energy 0.898048] ------- [8:255 -1:255 29 0] [0x2 2 1 [7 0] [0 4]] (REQUEST)
s 1.015795799 _10_ MAC  --- 0 AODV 55 [0 ffffffff a 800] [energy 0.898009] ------- [10:255 -1:255 29 0] [0x2 2 1 [7 0] [0 4]] (REQUEST)
r 1.015866715 _17_ MAC  --- 0 AODV 48 [0 ffffffff f 800] [energy 0.897978] ------- [15:255 -1:255 29 0] [0x2 2 1 [7 0] [0 4]] (REQUEST)
D 1.017635128 _5_ MAC  LQI 0 AODV 55 [0 ffffffff 2 800] [energy 0.897835] ------- [2:255 -1:255 29 0] [0x2 2 1 [7 0] [0 4]] (REQUEST)
D 1.017635281 _8_ MAC  LQI 0 AODV 55 [0 ffffffff 2 800] [energy 0.897797] ------- [2:255 -1:255 29 0] [0x2 2 1 [7 0] [0 4]] (REQUEST)
D 1.017635345 _14_ MAC  LQI 0 AODV 55 [0 ffffffff 2 800] [energy 0.897797] ------- [2:255 -1:255 29 0] [0x2 2 1 [7 0] [0 4]] (REQUEST)
D 1.017748083 _16_ MAC  LQI 0 AODV 55 [0 ffffffff a 800] [energy 0.897747] ------- [10:255 -1:255 29 0] [0x2 2 1 [7 0] [0 4]] (REQUEST)
D 1.017748156 _17_ MAC  LQI 0 AODV 55 [0 ffffffff a 800] [energy 0.897747] ------- [10:255 -1:255 29 0] [0x2 2 1 [7 0] [0 4]] (REQUEST)
D 1.017748249 _15_ MAC  LQI 0 AODV 55 [0 ffffffff a 800] [energy 0.897786] ------- [10:255 -1:255 29 0] [0x2 2 1 [7 0] [0 4]] (REQUEST)
D 1.017748440 _6_ MAC  LQI 0 AODV 55 [0 ffffffff a 800] [energy 0.897786] ------- [10:255 -1:255 29 0] [0x2 2 1 [7 0] [0 4]] (REQUEST)
D 1.017748448 _39_ MAC  LQI 0 AODV 55 [0 ffffffff a 800] [energy 0.897747] ------- [10:255 -1:255 29 0] [0x2 2 1 [7 0] [0 4]] (REQUEST)
D 1.017748542 _42_ MAC  LQI 0 AODV 55 [0 ffffffff a 800] [energy 0.897901] ------- [10:255 -1:255 29 0] [0x2 2 1 [7 0] [0 4]] (REQUEST)
D 1.017748614 _26_ MAC  LQI 0 AODV 55 [0 ffffffff a 800] [energy 0.897786] ------- [10:255 -1:255 29 0] [0x2 2 1 [7 0] [0 4]] (REQUEST)
s 1.018185147 _39_ MAC  --- 0 AODV 55 [0 ffffffff 27 800] [energy 0.897747] ------- [39:255 -1:255 29 0] [0x2 2 1 [7 0] [0 4]] (REQUEST)
s 1.018197709 _26_ MAC  --- 0 AODV 55 [0 ffffffff 1a 800] [energy 0.897697] ------- [26:255 -1:255 28 0] [0x2 3 1 [7 0] [0 4]] (REQUEST)
r 1.018274856 _3_ MAC  --- 0 AODV 48 [0 ffffffff 2 800] [energy 0.897654] ------- [2:255 -1:255 29 0] [0x2 2 1 [7 0] [0 4]] (REQUEST)
r 1.018274865 _1_ MAC  --- 0 AODV 48 [0 ffffffff 2 800] [energy 0.897654] ------- [2:255 -1:255 29 0] [0x2 2 1 [7 0] [0 4]] (REQUEST)
r 1.018274990 _4_ MAC  --- 0 AODV 48 [0 ffffffff 2 800] [energy 0.897693] ------- [2:255 -1:255 29 0] [0x2 2 1 [7 0] [0 4]] (REQUEST)
r 1.018274993 _0_ MAC  --- 0 AODV 48 [0 ffffffff 2 800] [energy 0.897693] ------- [2:255 -1:255 29 0] [0x2 2 1 [7 0] [0 4]] (REQUEST)
r 1.018387918 _9_ MAC  --- 0 AODV 48 [0 ffffffff a 800] [energy 0.897693] ------- [10:255 -1:255 29 0] [0x2 2 1 [7 0] [0 4]] (REQUEST)
r 1.018388004 _44_ MAC  --- 0 AODV 48 [0 ffffffff a 800] [energy 0.897732] ------- [10:255 -1:255 29 0] [0x2 2 1 [7 0] [0 4]] (REQUEST)
r 1.018388016 _11_ MAC  --- 0 AODV 48 [0 ffffffff a 800] [energy 0.897732] ------- [10:255 -1:255 29 0] [0x2 2 1 [7 0] [0 4]] (REQUEST)
r 1.018388146 _43_ MAC  --- 0 AODV 48 [0 ffffffff a 800] [energy 0.897655] ------- [10:255 -1:255 29 0] [0x2 2 1 [7 0] [0 4]] (REQUEST)
r 1.018388230 _41_ MAC  --- 0 AODV 48 [0 ffffffff a 800] [energy 0.897770] ------- [10:255 -1:255 29 0] [0x2 2 1 [7 0] [0 4]] (REQUEST)
r 1.018388331 _21_ MAC  --- 0 AODV 48 [0 ffffffff a 800] [energy 0.897732] ------- [10:255 -1:255 29 0] [0x2 2 1 [7 0] [0 4]] (REQUEST)
r 1.018388349 _12_ MAC  --- 0 AODV 48 [0 ffffffff a 800] [energy 0.897770] ------- [10:255 -1:255 29 0] [0x2 2 1 [7 0] [0 4]] (REQUEST)
r 1.018388454 _28_ MAC  --- 0 AODV 48 [0 ffffffff a 800] [energy 0.897770] ------- [10:255 -1:255 29 0] [0x2 2 1 [7 0] [0 4]] (REQUEST)
D 1.020137480 _38_ MAC  LQI 0 AODV 55 [0 ffffffff 27 800] [energy 0.897502] ------- [39:255 -1:255 29 0] [0x2 2 1 [7 0] [0 4]] (REQUEST)
D 1.020137480 _43_ MAC  LQI 0 AODV 55 [0 ffffffff 27 800] [energy 0.897425] ------- [39:255 -1:255 29 0] [0x2 2 1 [7 0] [0 4]] (REQUEST)
D 1.020137536 _16_ MAC  LQI 0 AODV 55 [0 ffffffff 27 800] [energy 0.897425] ------- [39:255 -1:255 29 0] [0x2 2 1 [7 0] [0 4]] (REQUEST)
D 1.020137684 _9_ MAC  LQI 0 AODV 55 [0 ffffffff 27 800] [energy 0.897463] ------- [39:255 -1:255 29 0] [0x2 2 1 [7 0] [0 4]] (REQUEST)
D 1.020137684 _13_ MAC  LQI 0 AODV 55 [0 ffffffff 27 800] [energy 0.897502] ------- [39:255 -1:255 29 0] [0x2 2 1 [7 0] [0 4]] (REQUEST)
D 1.020137774 _0_ MAC  LQI 0 AODV 55 [0 ffffffff 27 800] [energy 0.897463] ------- [39:255 -1:255 29 0] [0x2 2 1 [7 0] [0 4]] (REQUEST)
D 1.020137796 _10_ MAC  LQI 0 AODV 55 [0 ffffffff 27 800] [energy 0.897463] ------- [39:255 -1:255 29 0] [0x2 2 1 [7 0] [0 4]] (REQUEST)
D 1.020137814 _37_ MAC  LQI 0 AODV 55 [0 ffffffff 27 800] [energy 0.897540] ------- [39:255 -1:255 29 0] [0x2 2 1 [7 0] [0 4]] (REQUEST)
D 1.020137814 _44_ MAC  LQI 0 AODV 55 [0 ffffffff 27 800] [energy 0.897502] ------- [39:255 -1:255 29 0] [0x2 2 1 [7 0] [0 4]] (REQUEST)
D 1.020137819 _1_ MAC  LQI 0 AODV 55 [0 ffffffff 27 800] [energy 0.897424] ------- [39:255 -1:255 29 0] [0x2 2 1 [7 0] [0 4]] (REQUEST)
D 1.020137842 _19_ MAC  LQI 0 AODV 55 [0 ffffffff 27 800] [energy 0.897502] ------- [39:255 -1:255 29 0] [0x2 2 1 [7 0] [0 4]] (REQUEST)
D 1.020137864 _2_ MAC  LQI 0 AODV 55 [0 ffffffff 27 800] [energy 0.897463] ------- [39:255 -1:255 29 0] [0x2 2 1 [7 0] [0 4]] (REQUEST)
D 1.020137898 _3_ MAC  LQI 0 AODV 55 [0 ffffffff 27 800] [energy 0.897424] ------- [39:255 -1:255 29 0] [0x2 2 1 [7 0] [0 4]] (REQUEST)
D 1.020137965 _4_ MAC  LQI 0 AODV 55 [0 ffffffff 27 800] [energy 0.897463] ------- [39:255 -1:255 29 0] [0x2 2 1 [7 0] [0 4]] (REQUEST)
D 1.020149969 _6_ MAC  LQI 0 AODV 55 [0 ffffffff 1a 800] [energy 0.897462] ------- [26:255 -1:255 28 0] [0x2 3 1 [7 0] [0 4]] (REQUEST)
D 1.020150042 _25_ MAC  LQI 0 AODV 55 [0 ffffffff 1a 800] [energy 0.897539] ------- [26:255 -1:255 28 0] [0x2 3 1 [7 0] [0 4]] (REQUEST)
D 1.020150133 _7_ MAC  LQI 0 AODV 55 [0 ffffffff 1a 800] [energy 0.897616] ------- [26:255 -1:255 28 0] [0x2 3 1 [7 0] [0 4]] (REQUEST)
D 1.020150181 _47_ MAC  LQI 0 AODV 55 [0 ffffffff 1a 800] [energy 0.897616] ------- [26:255 -1:255 28 0] [0x2 3 1 [7 0] [0 4]] (REQUEST)
D 1.020150302 _21_ MAC  LQI 0 AODV 55 [0 ffffffff 1a 800] [energy 0.897501] ------- [26:255 -1:255 28 0] [0x2 3 1 [7 0] [0 4]] (REQUEST)
D 1.020150375 _24_ MAC  LQI 0 AODV 55 [0 ffffffff 1a 800] [energy 0.897539] ------- [26:255 -1:255 28 0] [0x2 3 1 [7 0] [0 4]] (REQUEST)
D 1.020150455 _46_ MAC  LQI 0 AODV 55 [0 ffffffff 1a 800] [energy 0.897616] ------- [26:255 -1:255 28 0] [0x2 3 1 [7 0] [0 4]] (REQUEST)
r 1.020777351 _8_ MAC  --- 0 AODV 48 [0 ffffffff 27 800] [energy 0.897463] ------- [39:255 -1:255 29 0] [0x2 2 1 [7 0] [0 4]] (REQUEST)
r 1.020777406 _14_ MAC  --- 0 AODV 48 [0 ffffffff 27 800] [energy 0.897463] ------- [39:255 -1:255 29 0] [0x2 2 1 [7 0] [0 4]] (REQUEST)
r 1.020777407 _15_ MAC  --- 0 AODV 48 [0 ffffffff 27 800] [energy 0.897463] ------- [39:255 -1:255 29 0] [0x2 2 1 [7 0] [0 4]] (REQUEST)
r 1.020777474 _17_ MAC  --- 0 AODV 48 [0 ffffffff 27 800] [energy 0.897425] ------- [39:255 -1:255 29 0] [0x2 2 1 [7 0] [0 4]] (REQUEST)
s 1.021039921 _28_ MAC  --- 0 AODV 55 [0 ffffffff 1c 800] [energy 0.897770] ------- [28:255 -1:255 28 0] [0x2 3 1 [7 0] [0 4]] (REQUEST)
s 1.021221723 _12_ MAC  --- 0 AODV 55 [0 ffffffff c 800] [energy 0.897443] ------- [12:255 -1:255 28 0] [0x2 3 1 [7 0] [0 4]] (REQUEST)
D 1.022992254 _29_ MAC  LQI 0 AODV 55 [0 ffffffff 1c 800] [energy 0.897257] ------- [28:255 -1:255 28 0] [0x2 3 1 [7 0] [0 4]] (REQUEST)
D 1.022992392 _44_ MAC  LQI 0 AODV 55 [0 ffffffff 1c 800] [energy 0.897103] ------- [28:255 -1:255 28 0] [0x2 3 1 [7 0] [0 4]] (REQUEST)
D 1.022992463 _45_ MAC  LQI 0 AODV 55 [0 ffffffff 1c 800] [energy 0.897300] ------- [28:255 -1:255 28 0] [0x2 3 1 [7 0] [0 4]] (REQUEST)
D 1.022992587 _27_ MAC  LQI 0 AODV 55 [0 ffffffff 1c 800] [energy 0.897343] ------- [28:255 -1:255 28 0] [0x2 3 1 [7 0] [0 4]] (REQUEST)
D 1.022992660 _6_ MAC  LQI 0 AODV 55 [0 ffffffff 1c 800] [energy 0.897065] ------- [28:255 -1:255 28 0] [0x2 3 1 [7 0] [0 4]] (REQUEST)
D 1.022992666 _43_ MAC  LQI 0 AODV 55 [0 ffffffff 1c 800] [energy 0.897026] ------- [28:255 -1:255 28 0] [0x2 3 1 [7 0] [0 4]] (REQUEST)
D 1.022992667 _47_ MAC  LQI 0 AODV 55 [0 ffffffff 1c 800] [energy 0.897219] ------- [28:255 -1:255 28 0] [0x2 3 1 [7 0] [0 4]] (REQUEST)
D 1.022992733 _7_ MAC  LQI 0 AODV 55 [0 ffffffff 1c 800] [energy 0.897219] ------- [28:255 -1:255 28 0] [0x2 3 1 [7 0] [0 4]] (REQUEST)
D 1.023173982 _42_ MAC  LQI 0 AODV 55 [0 ffffffff c 800] [energy 0.897201] ------- [12:255 -1:255 28 0] [0x2 3 1 [7 0] [0 4]] (REQUEST)
D 1.023173983 _41_ MAC  LQI 0 AODV 55 [0 ffffffff c 800] [energy 0.897162] ------- [12:255 -1:255 28 0] [0x2 3 1 [7 0] [0 4]] (REQUEST)
D 1.023174056 _11_ MAC  LQI 0 AODV 55 [0 ffffffff c 800] [energy 0.897124] ------- [12:255 -1:255 28 0] [0x2 3 1 [7 0] [0 4]] (REQUEST)
D 1.023174260 _40_ MAC  LQI 0 AODV 55 [0 ffffffff c 800] [energy 0.897282] ------- [12:255 -1:255 28 0] [0x2 3 1 [7 0] [0 4]] (REQUEST)
D 1.023174273 _10_ MAC  LQI 0 AODV 55 [0 ffffffff c 800] [energy 0.897047] ------- [12:255 -1:255 28 0] [0x2 3 1 [7 0] [0 4]] (REQUEST)
D 1.023174392 _9_ MAC  LQI 0 AODV 55 [0 ffffffff c 800] [energy 0.897047] ------- [12:255 -1:255 28 0] [0x2 3 1 [7 0] [0 4]] (REQUEST)
D 1.023174432 _5_ MAC  LQI 0 AODV 55 [0 ffffffff c 800] [energy 0.897123] ------- [12:255 -1:255 28 0] [0x2 3 1 [7 0] [0 4]] (REQUEST)
D 1.023174556 _16_ MAC  LQI 0 AODV 55 [0 ffffffff c 800] [energy 0.897008] ------- [12:255 -1:255 28 0] [0x2 3 1 [7 0] [0 4]] (REQUEST)
s 1.023317142 _37_ MAC  --- 0 AODV 55 [0 ffffffff 25 800] [energy 0.897405] ------- [37:255 -1:255 28 0] [0x2 3 1 [7 0] [0 4]] (REQUEST)
s 1.023435997 _3_ MAC  --- 0 AODV 55 [0 ffffffff 3 800] [energy 0.896987] ------- [3:255 -1:255 29 0] [0x2 2 1 [7 0] [0 4]] (REQUEST)
r 1.023632327 _21_ MAC  --- 0 AODV 48 [0 ffffffff 1c 800] [energy 0.896993] ------- [28:255 -1:255 28 0] [0x2 3 1 [7 0] [0 4]] (REQUEST)
r 1.023632589 _49_ MAC  --- 0 AODV 48 [0 ffffffff 1c 800] [energy 0.897230] ------- [28:255 -1:255 28 0] [0x2 3 1 [7 0] [0 4]] (REQUEST)
D 1.025269680 _14_ MAC  LQI 0 AODV 55 [0 ffffffff 25 800] [energy 0.896773] ------- [37:255 -1:255 28 0] [0x2 3 1 [7 0] [0 4]] (REQUEST)
D 1.025269808 _39_ MAC  LQI 0 AODV 55 [0 ffffffff 25 800] [energy 0.896773] ------- [37:255 -1:255 28 0] [0x2 3 1 [7 0] [0 4]] (REQUEST)
D 1.025269887 _26_ MAC  LQI 0 AODV 55 [0 ffffffff 25 800] [energy 0.896812] ------- [37:255 -1:255 28 0] [0x2 3 1 [7 0] [0 4]] (REQUEST)
D 1.025388500 _15_ MAC  LQI 0 AODV 55 [0 ffffffff 3 800] [energy 0.896762] ------- [3:255 -1:255 29 0] [0x2 2 1 [7 0] [0 4]] (REQUEST)
D 1.025388605 _8_ MAC  LQI 0 AODV 55 [0 ffffffff 3 800] [energy 0.896761] ------- [3:255 -1:255 29 0] [0x2 2 1 [7 0] [0 4]] (REQUEST)
D 1.025388671 _43_ MAC  LQI 0 AODV 55 [0 ffffffff 3 800] [energy 0.896685] ------- [3:255 -1:255 29 0] [0x2 2 1 [7 0] [0 4]] (REQUEST)
D 1.025388750 _44_ MAC  LQI 0 AODV 55 [0 ffffffff 3 800] [energy 0.896762] ------- [3:255 -1:255 29 0] [0x2 2 1 [7 0] [0 4]] (REQUEST)
s 1.025677767 _13_ MAC  --- 0 AODV 55 [0 ffffffff d 800] [energy 0.896812] ------- [13:255 -1:255 29 0] [0x2 2 1 [7 0] [0 4]] (REQUEST)
s 1.025681936 _49_ MAC  --- 0 AODV 55 [0 ffffffff 31 800] [energy 0.897230] ------- [49:255 -1:255 27 0] [0x2 4 1 [7 0] [0 4]] (REQUEST)
s 1.025832268 _43_ MAC  --- 0 AODV 55 [0 ffffffff 2b 800] [energy 0.896609] ------- [43:255 -1:255 29 0] [0x2 2 1 [7 0] [0 4]] (REQUEST)
r 1.025909340 _19_ MAC  --- 0 AODV 48 [0 ffffffff 25 800] [energy 0.896683] ------- [37:255 -1:255 28 0] [0x2 3 1 [7 0] [0 4]] (REQUEST)
r 1.025909401 _13_ MAC  --- 0 AODV 48 [0 ffffffff 25 800] [energy 0.896683] ------- [37:255 -1:255 28 0] [0x2 3 1 [7 0] [0 4]] (REQUEST)
r 1.025909475 _24_ MAC  --- 0 AODV 48 [0 ffffffff 25 800] [energy 0.896753] ------- [37:255 -1:255 28 0] [0x2 3 1 [7 0] [0 4]] (REQUEST)
r 1.025909475 _36_ MAC  --- 0 AODV 48 [0 ffffffff 25 800] [energy 0.896912] ------- [37:255 -1:255 28 0] [0x2 3 1 [7 0] [0 4]] (REQUEST)
r 1.025909475 _38_ MAC  --- 0 AODV 48 [0 ffffffff 25 800] [energy 0.896683] ------- [37:255 -1:255 28 0] [0x2 3 1 [7 0] [0 4]] (REQUEST)
r 1.025909613 _23_ MAC  --- 0 AODV 48 [0 ffffffff 25 800] [energy 0.896923] ------- [37:255 -1:255 28 0] [0x2 3 1 [7 0] [0 4]] (REQUEST)
r 1.025909613 _25_ MAC  --- 0 AODV 48 [0 ffffffff 25 800] [energy 0.896722] ------- [37:255 -1:255 28 0] [0x2 3 1 [7 0] [0 4]] (REQUEST)
r 1.025909808 _35_ MAC  --- 0 AODV 48 [0 ffffffff 25 800] [energy 0.896990] ------- [37:255 -1:255 28 0] [0x2 3 1 [7 0] [0 4]] (REQUEST)
r 1.025909810 _46_ MAC  --- 0 AODV 48 [0 ffffffff 25 800] [energy 0.896831] ------- [37:255 -1:255 28 0] [0x2 3 1 [7 0] [0 4]] (REQUEST)
r 1.025909887 _22_ MAC  --- 0 AODV 48 [0 ffffffff 25 800] [energy 0.897054] ------- [37:255 -1:255 28 0] [0x2 3 1 [7 0] [0 4]] (REQUEST)
r 1.026028122 _2_ MAC  --- 0 AODV 48 [0 ffffffff 3 800] [energy 0.896645] ------- [3:255 -1:255 29 0] [0x2 2 1 [7 0] [0 4]] (REQUEST)
r 1.026028131 _4_ MAC  --- 0 AODV 48 [0 ffffffff 3 800] [energy 0.896645] ------- [3:255 -1:255 29 0] [0x2 2 1 [7 0] [0 4]] (REQUEST)
r 1.026028254 _1_ MAC  --- 0 AODV 48 [0 ffffffff 3 800] [energy 0.896606] ------- [3:255 -1:255 29 0] [0x2 2 1 [7 0] [0 4]] (REQUEST)
r 1.026028270 _5_ MAC  --- 0 AODV 48 [0 ffffffff 3 800] [energy 0.896697] ------- [3:255 -1:255 29 0] [0x2 2 1 [7 0] [0 4]] (REQUEST)
r 1.026028380 _0_ MAC  --- 0 AODV 48 [0 ffffffff 3 800] [energy 0.896645] ------- [3:255 -1:255 29 0] [0x2 2 1 [7 0] [0 4]] (REQUEST)
r 1.026028473 _16_ MAC  --- 0 AODV 48 [0 ffffffff 3 800] [energy 0.896582] ------- [3:255 -1:255 29 0] [0x2 2 1 [7 0] [0 4]] (REQUEST)
r 1.026028478 _17_ MAC  --- 0 AODV 48 [0 ffffffff 3 800] [energy 0.896607] ------- [3:255 -1:255 29 0] [0x2 2 1 [7 0] [0 4]] (REQUEST)
r 1.026028501 _9_ MAC  --- 0 AODV 48 [0 ffffffff 3 800] [energy 0.896620] ------- [3:255 -1:255 29 0] [0x2 2 1 [7 0] [0 4]] (REQUEST)
r 1.026028552 _10_ MAC  --- 0 AODV 48 [0 ffffffff 3 800] [energy 0.896620] ------- [3:255 -1:255 29 0] [0x2 2 1 [7 0] [0 4]] (REQUEST)
r 1.026028689 _11_ MAC  --- 0 AODV 48 [0 ffffffff 3 800] [energy 0.896697] ------- [3:255 -1:255 29 0] [0x2 2 1 [7 0] [0 4]] (REQUEST)
D 1.027630101 _14_ MAC  LQI 0 AODV 55 [0 ffffffff d 800] [energy 0.896429] ------- [13:255 -1:255 29 0] [0x2 2 1 [7 0] [0 4]] (REQUEST)
D 1.027630324 _25_ MAC  LQI 0 AODV 55 [0 ffffffff d 800] [energy 0.896506] ------- [13:255 -1:255 29 0] [0x2 2 1 [7 0] [0 4]] (REQUEST)
D 1.027630388 _0_ MAC  LQI 0 AODV 55 [0 ffffffff d 800] [energy 0.896429] ------- [13:255 -1:255 29 0] [0x2 2 1 [7 0] [0 4]] (REQUEST)
D 1.027634604 _28_ MAC  LQI 0 AODV 55 [0 ffffffff 31 800] [energy 0.896583] ------- [49:255 -1:255 27 0] [0x2 4 1 [7 0] [0 4]] (REQUEST)
D 1.027634683 _29_ MAC  LQI 0 AODV 55 [0 ffffffff 31 800] [energy 0.896643] ------- [49:255 -1:255 27 0] [0x2 4 1 [7 0] [0 4]] (REQUEST)
D 1.027784601 _39_ MAC  LQI 0 AODV 55 [0 ffffffff 2b 800] [energy 0.896414] ------- [43:255 -1:255 29 0] [0x2 2 1 [7 0] [0 4]] (REQUEST)
D 1.027784690 _21_ MAC  LQI 0 AODV 55 [0 ffffffff 2b 800] [energy 0.896453] ------- [43:255 -1:255 29 0] [0x2 2 1 [7 0] [0 4]] (REQUEST)
D 1.027784696 _8_ MAC  LQI 0 AODV 55 [0 ffffffff 2b 800] [energy 0.896414] ------- [43:255 -1:255 29 0] [0x2 2 1 [7 0] [0 4]] (REQUEST)
D 1.027784739 _26_ MAC  LQI 0 AODV 55 [0 ffffffff 2b 800] [energy 0.896452] ------- [43:255 -1:255 29 0] [0x2 2 1 [7 0] [0 4]] (REQUEST)
D 1.027784934 _41_ MAC  LQI 0 AODV 55 [0 ffffffff 2b 800] [energy 0.896543] ------- [43:255 -1:255 29 0] [0x2 2 1 [7 0] [0 4]] (REQUEST)
D 1.027784936 _47_ MAC  LQI 0 AODV 55 [0 ffffffff 2b 800] [energy 0.896568] ------- [43:255 -1:255 29 0] [0x2 2 1 [7 0] [0 4]] (REQUEST)
D 1.027784940 _7_ MAC  LQI 0 AODV 55 [0 ffffffff 2b 800] [energy 0.896568] ------- [43:255 -1:255 29 0] [0x2 2 1 [7 0] [0 4]] (REQUEST)
D 1.027784942 _3_ MAC  LQI 0 AODV 55 [0 ffffffff 2b 800] [energy 0.896414] ------- [43:255 -1:255 29 0] [0x2 2 1 [7 0] [0 4]] (REQUEST)
D 1.027784944 _5_ MAC  LQI 0 AODV 55 [0 ffffffff 2b 800] [energy 0.896466] ------- [43:255 -1:255 29 0] [0x2 2 1 [7 0] [0 4]] (REQUEST)
D 1.027784953 _4_ MAC  LQI 0 AODV 55 [0 ffffffff 2b 800] [energy 0.896414] ------- [43:255 -1:255 29 0] [0x2 2 1 [7 0] [0 4]] (REQUEST)
D 1.027784965 _2_ MAC  LQI 0 AODV 55 [0 ffffffff 2b 800] [energy 0.896414] ------- [43:255 -1:255 29 0] [0x2 2 1 [7 0] [0 4]] (REQUEST)
D 1.027784983 _1_ MAC  LQI 0 AODV 55 [0 ffffffff 2b 800] [energy 0.896375] ------- [43:255 -1:255 29 0] [0x2 2 1 [7 0] [0 4]] (REQUEST)
s 1.028017011 _38_ MAC  --- 0 AODV 55 [0 ffffffff 26 800] [energy 0.896467] ------- [38:255 -1:255 29 0] [0x2 2 1 [7 0] [0 4]] (REQUEST)
r 1.028269934 _19_ MAC  --- 0 AODV 48 [0 ffffffff d 800] [energy 0.896383] ------- [13:255 -1:255 29 0] [0x2 2 1 [7 0] [0 4]] (REQUEST)
r 1.028270026 _38_ MAC  --- 0 AODV 48 [0 ffffffff d 800] [energy 0.896384] ------- [13:255 -1:255 29 0] [0x2 2 1 [7 0] [0 4]] (REQUEST)
r 1.028270027 _37_ MAC  --- 0 AODV 48 [0 ffffffff d 800] [energy 0.896492] ------- [13:255 -1:255 29 0] [0x2 2 1 [7 0] [0 4]] (REQUEST)
r 1.028270306 _36_ MAC  --- 0 AODV 48 [0 ffffffff d 800] [energy 0.896612] ------- [13:255 -1:255 29 0] [0x2 2 1 [7 0] [0 4]] (REQUEST)
r 1.028270325 _24_ MAC  --- 0 AODV 48 [0 ffffffff d 800] [energy 0.896454] ------- [13:255 -1:255 29 0] [0x2 2 1 [7 0] [0 4]] (REQUEST)
r 1.028270498 _23_ MAC  --- 0 AODV 48 [0 ffffffff d 800] [energy 0.896624] ------- [13:255 -1:255 29 0] [0x2 2 1 [7 0] [0 4]] (REQUEST)
r 1.028274478 _45_ MAC  --- 0 AODV 48 [0 ffffffff 31 800] [energy 0.896685] ------- [49:255 -1:255 27 0] [0x2 4 1 [7 0] [0 4]] (REQUEST)
r 1.028424466 _16_ MAC  --- 0 AODV 48 [0 ffffffff 2b 800] [energy 0.896282] ------- [43:255 -1:255 29 0] [0x2 2 1 [7 0] [0 4]] (REQUEST)
r 1.028424479 _17_ MAC  --- 0 AODV 48 [0 ffffffff 2b 800] [energy 0.896307] ------- [43:255 -1:255 29 0] [0x2 2 1 [7 0] [0 4]] (REQUEST)