n -t * -s 0  -x 485.52529900000002 -y 12.719421000000001 -Z 0 -z 10.000000  -v circle -c green
n -t * -s 1  -x 522.21820100000002 -y 0 -Z 0 -z 10.000000  -v circle -c green
n -t * -s 2  -x 562.02062999999998 -y -5.6574669999999996 -Z 0 -z 10.000000  -v circle -c green
n -t * -s 3  -x 599.34362799999997 -y -1.983274 -Z 0 -z 10.000000  -v circle -c green
n -t * -s 4  -x 639.53118900000004 -y -1.4738929999999999 -Z 0 -z 10.000000  -v circle -c green
n -t * -s 5  -x 679.70538299999998 -y 13.536232999999999 -Z 0 -z 10.000000  -v circle -c green
n -t * -s 6  -x 578.09277299999997 -y 300.21606400000002 -Z 0 -z 10.000000  -v circle -c green
n -t * -s 7  -x 578.09277299999997 -y 400.731674 -Z 0 -z 10.000000  -v circle -c green
n -t * -s 8  -x 485.215576 -y 140.731674 -Z 0 -z 10.000000  -v circle -c green
n -t * -s 9  -x 650.21557600000006 -y 140.731674 -Z 0 -z 10.000000  -v circle -c green
V -t * -v 1.0a5 -a 0
W -t * -x 1500 -y 1500
A -t * -n 1 -p 0 -o 0xffffffff -c 31 -a 1
A -t * -h 1 -m 2147483647 -s 0
n -t 0 -s 0 -S DLABEL -l "Sensor_Node" -L ""
n -t 0 -s 0 -S COLOR -c RED -o black -i RED -I black
n -t 0 -s 1 -S DLABEL -l "Sensor_Node" -L ""
n -t 0 -s 1 -S COLOR -c RED -o black -i RED -I black
n -t 0 -s 2 -S DLABEL -l "Sensor_Node" -L ""
n -t 0 -s 2 -S COLOR -c RED -o black -i RED -I black
n -t 0 -s 3 -S DLABEL -l "Sensor_Node" -L ""
n -t 0 -s 3 -S COLOR -c RED -o black -i RED -I black
n -t 0 -s 4 -S DLABEL -l "Sensor_Node" -L ""
n -t 0 -s 4 -S COLOR -c RED -o black -i RED -I black
n -t 0 -s 5 -S DLABEL -l "Sensor_Node" -L ""
n -t 0 -s 5 -S COLOR -c RED -o black -i RED -I black
n -t 0 -s 6 -S DLABEL -l "Clusterhead" -L ""
n -t 0 -s 6 -S COLOR -c pink -o black -i pink -I black
n -t 0 -s 7 -S DLABEL -l "Base_Station" -L ""
n -t 0 -s 7 -S COLOR -c blue -o black -i blue -I black
n -t 0 -s 8 -S DLABEL -l "Node" -L ""
n -t 0 -s 8 -S COLOR -c gold -o black -i gold -I black
n -t 0 -s 9 -S DLABEL -l "Node" -L ""
n -t 0 -s 9 -S COLOR -c gold -o black -i gold -I black
n -t 1.000000 -s 8 -x 485.215576 -y 140.731674 -U 29.765356 -V -3.744806 -T 5.536115
n -t 1.000000 -s 9 -x 650.215576 -y 140.731674 -U -29.766565 -V -3.735185 -T 5.550374
n -t 1 -s 0 -S COLOR -c green -o RED -i green -I RED
+ -t 1.000000000 -s 0 -d -1 -p tcp -e 40 -c 2 -a 0 -i 0 -k AGT 
- -t 1.000000000 -s 0 -d -1 -p tcp -e 40 -c 2 -a 0 -i 0 -k AGT
h -t 1.000000000 -s 0 -d -1 -p tcp -e 40 -c 2 -a 0 -i 0 -k AGT
+ -t 1.000665000 -s 0 -d -1 -p AODV -e 55 -c 2 -a 0 -i 0 -k MAC 
- -t 1.000665000 -s 0 -d -1 -p AODV -e 55 -c 2 -a 0 -i 0 -k MAC
h -t 1.000665000 -s 0 -d -1 -p AODV -e 55 -c 2 -a 0 -i 0 -k MAC
r -t 1.003257129 -s 1 -d -1 -p AODV -e 48 -c 2 -a 0 -i 0 -k MAC
r -t 1.003257262 -s 2 -d -1 -p AODV -e 48 -c 2 -a 0 -i 0 -k MAC
r -t 1.003257383 -s 3 -d -1 -p AODV -e 48 -c 2 -a 0 -i 0 -k MAC
r -t 1.003257427 -s 8 -d -1 -p AODV -e 48 -c 2 -a 0 -i 0 -k MAC
r -t 1.003257516 -s 4 -d -1 -p AODV -e 48 -c 2 -a 0 -i 0 -k MAC
r -t 1.003257647 -s 5 -d -1 -p AODV -e 48 -c 2 -a 0 -i 0 -k MAC
r -t 1.003257695 -s 9 -d -1 -p AODV -e 48 -c 2 -a 0 -i 0 -k MAC
+ -t 1.006999683 -s 8 -d -1 -p AODV -e 55 -c 2 -a 0 -i 0 -k MAC 
- -t 1.006999683 -s 8 -d -1 -p AODV -e 55 -c 2 -a 0 -i 0 -k MAC
h -t 1.006999683 -s 8 -d -1 -p AODV -e 55 -c 2 -a 0 -i 0 -k MAC
r -t 1.009592110 -s 0 -d -1 -p AODV -e 48 -c 2 -a 0 -i 0 -k MAC
r -t 1.009592168 -s 1 -d -1 -p AODV -e 48 -c 2 -a 0 -i 0 -k MAC
r -t 1.009592232 -s 9 -d -1 -p AODV -e 48 -c 2 -a 0 -i 0 -k MAC
r -t 1.009592234 -s 2 -d -1 -p AODV -e 48 -c 2 -a 0 -i 0 -k MAC
r -t 1.009592292 -s 3 -d -1 -p AODV -e 48 -c 2 -a 0 -i 0 -k MAC
r -t 1.009592298 -s 6 -d -1 -p AODV -e 48 -c 2 -a 0 -i 0 -k MAC
r -t 1.009592382 -s 4 -d -1 -p AODV -e 48 -c 2 -a 0 -i 0 -k MAC
r -t 1.009592457 -s 5 -d -1 -p AODV -e 48 -c 2 -a 0 -i 0 -k MAC
+ -t 1.010401137 -s 5 -d -1 -p AODV -e 55 -c 2 -a 0 -i 0 -k MAC 
- -t 1.010401137 -s 5 -d -1 -p AODV -e 55 -c 2 -a 0 -i 0 -k MAC
h -t 1.010401137 -s 5 -d -1 -p AODV -e 55 -c 2 -a 0 -i 0 -k MAC
+ -t 1.012567802 -s 1 -d -1 -p AODV -e 55 -c 2 -a 0 -i 0 -k MAC 
- -t 1.012567802 -s 1 -d -1 -p AODV -e 55 -c 2 -a 0 -i 0 -k MAC
h -t 1.012567802 -s 1 -d -1 -p AODV -e 55 -c 2 -a 0 -i 0 -k MAC
+ -t 1.012665514 -s 2 -d -1 -p AODV -e 55 -c 2 -a 0 -i 0 -k MAC 
- -t 1.012665514 -s 2 -d -1 -p AODV -e 55 -c 2 -a 0 -i 0 -k MAC
h -t 1.012665514 -s 2 -d -1 -p AODV -e 55 -c 2 -a 0 -i 0 -k MAC
r -t 1.012993280 -s 4 -d -1 -p AODV -e 48 -c 2 -a 0 -i 0 -k MAC
r -t 1.012993410 -s 3 -d -1 -p AODV -e 48 -c 2 -a 0 -i 0 -k MAC
r -t 1.012993534 -s 2 -d -1 -p AODV -e 48 -c 2 -a 0 -i 0 -k MAC
r -t 1.012993572 -s 9 -d -1 -p AODV -e 48 -c 2 -a 0 -i 0 -k MAC
r -t 1.012993664 -s 1 -d -1 -p AODV -e 48 -c 2 -a 0 -i 0 -k MAC
r -t 1.012993784 -s 0 -d -1 -p AODV -e 48 -c 2 -a 0 -i 0 -k MAC
r -t 1.012993910 -s 8 -d -1 -p AODV -e 48 -c 2 -a 0 -i 0 -k MAC
d -t 1.014519932 -s 0 -d -1 -p AODV -e 55 -c 2 -a 0 -i 0 -k MAC
d -t 1.014520287 -s 8 -d -1 -p AODV -e 55 -c 2 -a 0 -i 0 -k MAC
d -t 1.014617639 -s 3 -d -1 -p AODV -e 55 -c 2 -a 0 -i 0 -k MAC
d -t 1.014617773 -s 4 -d -1 -p AODV -e 55 -c 2 -a 0 -i 0 -k MAC
d -t 1.014617912 -s 5 -d -1 -p AODV -e 55 -c 2 -a 0 -i 0 -k MAC
d -t 1.014618083 -s 9 -d -1 -p AODV -e 55 -c 2 -a 0 -i 0 -k MAC
+ -t 1.015284373 -s 6 -d -1 -p AODV -e 55 -c 2 -a 0 -i 0 -k MAC 
- -t 1.015284373 -s 6 -d -1 -p AODV -e 55 -c 2 -a 0 -i 0 -k MAC
h -t 1.015284373 -s 6 -d -1 -p AODV -e 55 -c 2 -a 0 -i 0 -k MAC
r -t 1.017876708 -s 7 -d -1 -p AODV -e 48 -c 2 -a 0 -i 0 -k MAC
r -t 1.017876956 -s 9 -d -1 -p AODV -e 48 -c 2 -a 0 -i 0 -k MAC
r -t 1.017876988 -s 8 -d -1 -p AODV -e 48 -c 2 -a 0 -i 0 -k MAC
+ -t 1.018666581 -s 4 -d -1 -p AODV -e 55 -c 2 -a 0 -i 0 -k MAC 
- -t 1.018666581 -s 4 -d -1 -p AODV -e 55 -c 2 -a 0 -i 0 -k MAC
h -t 1.018666581 -s 4 -d -1 -p AODV -e 55 -c 2 -a 0 -i 0 -k MAC
r -t 1.021258715 -s 3 -d -1 -p AODV -e 48 -c 2 -a 0 -i 0 -k MAC
r -t 1.021258724 -s 5 -d -1 -p AODV -e 48 -c 2 -a 0 -i 0 -k MAC
r -t 1.021258840 -s 2 -d -1 -p AODV -e 48 -c 2 -a 0 -i 0 -k MAC
r -t 1.021258972 -s 1 -d -1 -p AODV -e 48 -c 2 -a 0 -i 0 -k MAC
r -t 1.021259056 -s 9 -d -1 -p AODV -e 48 -c 2 -a 0 -i 0 -k MAC
r -t 1.021259097 -s 0 -d -1 -p AODV -e 48 -c 2 -a 0 -i 0 -k MAC
r -t 1.021259279 -s 8 -d -1 -p AODV -e 48 -c 2 -a 0 -i 0 -k MAC
+ -t 1.021746014 -s 9 -d -1 -p AODV -e 55 -c 2 -a 0 -i 0 -k MAC 
- -t 1.021746014 -s 9 -d -1 -p AODV -e 55 -c 2 -a 0 -i 0 -k MAC
h -t 1.021746014 -s 9 -d -1 -p AODV -e 55 -c 2 -a 0 -i 0 -k MAC
r -t 1.024338450 -s 5 -d -1 -p AODV -e 48 -c 2 -a 0 -i 0 -k MAC
r -t 1.024338489 -s 4 -d -1 -p AODV -e 48 -c 2 -a 0 -i 0 -k MAC
r -t 1.024338518 -s 3 -d -1 -p AODV -e 48 -c 2 -a 0 -i 0 -k MAC
r -t 1.024338560 -s 8 -d -1 -p AODV -e 48 -c 2 -a 0 -i 0 -k MAC
r -t 1.024338583 -s 2 -d -1 -p AODV -e 48 -c 2 -a 0 -i 0 -k MAC
r -t 1.024338597 -s 6 -d -1 -p AODV -e 48 -c 2 -a 0 -i 0 -k MAC
r -t 1.024338647 -s 1 -d -1 -p AODV -e 48 -c 2 -a 0 -i 0 -k MAC
r -t 1.024338708 -s 0 -d -1 -p AODV -e 48 -c 2 -a 0 -i 0 -k MAC
+ -t 1.024870977 -s 3 -d -1 -p AODV -e 55 -c 2 -a 0 -i 0 -k MAC 
- -t 1.024870977 -s 3 -d -1 -p AODV -e 55 -c 2 -a 0 -i 0 -k MAC
h -t 1.024870977 -s 3 -d -1 -p AODV -e 55 -c 2 -a 0 -i 0 -k MAC
r -t 1.027463102 -s 2 -d -1 -p AODV -e 48 -c 2 -a 0 -i 0 -k MAC
r -t 1.027463111 -s 4 -d -1 -p AODV -e 48 -c 2 -a 0 -i 0 -k MAC
r -t 1.027463234 -s 1 -d -1 -p AODV -e 48 -c 2 -a 0 -i 0 -k MAC
r -t 1.027463250 -s 5 -d -1 -p AODV -e 48 -c 2 -a 0 -i 0 -k MAC
r -t 1.027463360 -s 0 -d -1 -p AODV -e 48 -c 2 -a 0 -i 0 -k MAC
r -t 1.027463481 -s 9 -d -1 -p AODV -e 48 -c 2 -a 0 -i 0 -k MAC
r -t 1.027463584 -s 8 -d -1 -p AODV -e 48 -c 2 -a 0 -i 0 -k MAC
+ -t 1.028978708 -s 7 -d -1 -p ARP -e 35 -c 2 -a 0 -i 0 -k MAC 
- -t 1.028978708 -s 7 -d -1 -p ARP -e 35 -c 2 -a 0 -i 0 -k MAC
h -t 1.028978708 -s 7 -d -1 -p ARP -e 35 -c 2 -a 0 -i 0 -k MAC
r -t 1.030931043 -s 6 -d -1 -p ARP -e 28 -c 2 -a 0 -i 0 -k MAC
+ -t 1.032856043 -s 6 -d -1 -p ARP -e 35 -c 2 -a 0 -i 0 -k MAC 
- -t 1.032856043 -s 6 -d -1 -p ARP -e 35 -c 2 -a 0 -i 0 -k MAC
h -t 1.032856043 -s 6 -d -1 -p ARP -e 35 -c 2 -a 0 -i 0 -k MAC
+ -t 1.034360378 -s 7 -d 6 -p ACK -e 5 -c 2 -a 0 -i 0 -k MAC 
- -t 1.034360378 -s 7 -d 6 -p ACK -e 5 -c 2 -a 0 -i 0 -k MAC
h -t 1.034360378 -s 7 -d 6 -p ACK -e 5 -c 2 -a 0 -i 0 -k MAC
r -t 1.034712713 -s 6 -d 6 -p ACK -e 5 -c 2 -a 0 -i 0 -k MAC
r -t 1.035352378 -s 7 -d -1 -p ARP -e 28 -c 2 -a 0 -i 0 -k MAC
+ -t 1.037277378 -s 7 -d 6 -p AODV -e 51 -c 2 -a 0 -i 0 -k MAC 
- -t 1.037277378 -s 7 -d 6 -p AODV -e 51 -c 2 -a 0 -i 0 -k MAC
h -t 1.037277378 -s 7 -d 6 -p AODV -e 51 -c 2 -a 0 -i 0 -k MAC
+ -t 1.039293713 -s 6 -d 7 -p ACK -e 5 -c 2 -a 0 -i 0 -k MAC 
- -t 1.039293713 -s 6 -d 7 -p ACK -e 5 -c 2 -a 0 -i 0 -k MAC
h -t 1.039293713 -s 6 -d 7 -p ACK -e 5 -c 2 -a 0 -i 0 -k MAC
r -t 1.039646048 -s 7 -d 7 -p ACK -e 5 -c 2 -a 0 -i 0 -k MAC
r -t 1.040285713 -s 6 -d 6 -p AODV -e 44 -c 2 -a 0 -i 0 -k MAC
+ -t 1.042875713 -s 6 -d -1 -p ARP -e 35 -c 2 -a 0 -i 0 -k MAC 
- -t 1.042875713 -s 6 -d -1 -p ARP -e 35 -c 2 -a 0 -i 0 -k MAC
h -t 1.042875713 -s 6 -d -1 -p ARP -e 35 -c 2 -a 0 -i 0 -k MAC
r -t 1.044828048 -s 7 -d -1 -p ARP -e 28 -c 2 -a 0 -i 0 -k MAC
r -t 1.044828296 -s 9 -d -1 -p ARP -e 28 -c 2 -a 0 -i 0 -k MAC
r -t 1.044828327 -s 8 -d -1 -p ARP -e 28 -c 2 -a 0 -i 0 -k MAC
+ -t 1.045153327 -s 8 -d -1 -p ARP -e 35 -c 2 -a 0 -i 0 -k MAC 
- -t 1.045153327 -s 8 -d -1 -p ARP -e 35 -c 2 -a 0 -i 0 -k MAC
h -t 1.045153327 -s 8 -d -1 -p ARP -e 35 -c 2 -a 0 -i 0 -k MAC
+ -t 1.046657940 -s 6 -d 8 -p ACK -e 5 -c 2 -a 0 -i 0 -k MAC 
- -t 1.046657940 -s 6 -d 8 -p ACK -e 5 -c 2 -a 0 -i 0 -k MAC
h -t 1.046657940 -s 6 -d 8 -p ACK -e 5 -c 2 -a 0 -i 0 -k MAC
r -t 1.047010554 -s 8 -d 8 -p ACK -e 5 -c 2 -a 0 -i 0 -k MAC
r -t 1.047649940 -s 6 -d -1 -p ARP -e 28 -c 2 -a 0 -i 0 -k MAC
+ -t 1.049894940 -s 6 -d 8 -p AODV -e 51 -c 2 -a 0 -i 0 -k MAC 
- -t 1.049894940 -s 6 -d 8 -p AODV -e 51 -c 2 -a 0 -i 0 -k MAC
h -t 1.049894940 -s 6 -d 8 -p AODV -e 51 -c 2 -a 0 -i 0 -k MAC
+ -t 1.051911554 -s 8 -d 6 -p ACK -e 5 -c 2 -a 0 -i 0 -k MAC 
- -t 1.051911554 -s 8 -d 6 -p ACK -e 5 -c 2 -a 0 -i 0 -k MAC
h -t 1.051911554 -s 8 -d 6 -p ACK -e 5 -c 2 -a 0 -i 0 -k MAC
r -t 1.052264167 -s 6 -d 6 -p ACK -e 5 -c 2 -a 0 -i 0 -k MAC
r -t 1.052903554 -s 8 -d 8 -p AODV -e 44 -c 2 -a 0 -i 0 -k MAC
+ -t 1.054213554 -s 8 -d -1 -p ARP -e 35 -c 2 -a 0 -i 0 -k MAC 
- -t 1.054213554 -s 8 -d -1 -p ARP -e 35 -c 2 -a 0 -i 0 -k MAC
h -t 1.054213554 -s 8 -d -1 -p ARP -e 35 -c 2 -a 0 -i 0 -k MAC
r -t 1.056165980 -s 0 -d -1 -p ARP -e 28 -c 2 -a 0 -i 0 -k MAC
r -t 1.056166037 -s 1 -d -1 -p ARP -e 28 -c 2 -a 0 -i 0 -k MAC
r -t 1.056166093 -s 9 -d -1 -p ARP -e 28 -c 2 -a 0 -i 0 -k MAC
r -t 1.056166102 -s 2 -d -1 -p ARP -e 28 -c 2 -a 0 -i 0 -k MAC
r -t 1.056166159 -s 3 -d -1 -p ARP -e 28 -c 2 -a 0 -i 0 -k MAC
r -t 1.056166167 -s 6 -d -1 -p ARP -e 28 -c 2 -a 0 -i 0 -k MAC
r -t 1.056166249 -s 4 -d -1 -p ARP -e 28 -c 2 -a 0 -i 0 -k MAC
r -t 1.056166323 -s 5 -d -1 -p ARP -e 28 -c 2 -a 0 -i 0 -k MAC
+ -t 1.057770980 -s 0 -d -1 -p ARP -e 35 -c 2 -a 0 -i 0 -k MAC 
- -t 1.057770980 -s 0 -d -1 -p ARP -e 35 -c 2 -a 0 -i 0 -k MAC
h -t 1.057770980 -s 0 -d -1 -p ARP -e 35 -c 2 -a 0 -i 0 -k MAC
+ -t 1.059275406 -s 8 -d 0 -p ACK -e 5 -c 2 -a 0 -i 0 -k MAC 
- -t 1.059275406 -s 8 -d 0 -p ACK -e 5 -c 2 -a 0 -i 0 -k MAC
h -t 1.059275406 -s 8 -d 0 -p ACK -e 5 -c 2 -a 0 -i 0 -k MAC
r -t 1.059627832 -s 0 -d 0 -p ACK -e 5 -c 2 -a 0 -i 0 -k MAC
r -t 1.060267406 -s 8 -d -1 -p ARP -e 28 -c 2 -a 0 -i 0 -k MAC
+ -t 1.060912406 -s 8 -d 0 -p AODV -e 51 -c 2 -a 0 -i 0 -k MAC 
- -t 1.060912406 -s 8 -d 0 -p AODV -e 51 -c 2 -a 0 -i 0 -k MAC
h -t 1.060912406 -s 8 -d 0 -p AODV -e 51 -c 2 -a 0 -i 0 -k MAC
+ -t 1.062928832 -s 0 -d 8 -p ACK -e 5 -c 2 -a 0 -i 0 -k MAC 
- -t 1.062928832 -s 0 -d 8 -p ACK -e 5 -c 2 -a 0 -i 0 -k MAC
h -t 1.062928832 -s 0 -d 8 -p ACK -e 5 -c 2 -a 0 -i 0 -k MAC
r -t 1.063281258 -s 8 -d 8 -p ACK -e 5 -c 2 -a 0 -i 0 -k MAC
r -t 1.063920832 -s 0 -d 0 -p AODV -e 44 -c 2 -a 0 -i 0 -k MAC
+ -t 1.065890832 -s 0 -d 8 -p tcp -e 67 -c 2 -a 0 -i 0 -k MAC 
- -t 1.065890832 -s 0 -d 8 -p tcp -e 67 -c 2 -a 0 -i 0 -k MAC
h -t 1.065890832 -s 0 -d 8 -p tcp -e 67 -c 2 -a 0 -i 0 -k MAC
+ -t 1.068419258 -s 8 -d 0 -p ACK -e 5 -c 2 -a 0 -i 0 -k MAC 
- -t 1.068419258 -s 8 -d 0 -p ACK -e 5 -c 2 -a 0 -i 0 -k MAC
h -t 1.068419258 -s 8 -d 0 -p ACK -e 5 -c 2 -a 0 -i 0 -k MAC
r -t 1.068771683 -s 0 -d 0 -p ACK -e 5 -c 2 -a 0 -i 0 -k MAC
r -t 1.069411258 -s 8 -d 8 -p tcp -e 60 -c 2 -a 0 -i 0 -k MAC
+ -t 1.071701258 -s 8 -d 6 -p tcp -e 67 -c 2 -a 0 -i 0 -k MAC 
- -t 1.071701258 -s 8 -d 6 -p tcp -e 67 -c 2 -a 0 -i 0 -k MAC
h -t 1.071701258 -s 8 -d 6 -p tcp -e 67 -c 2 -a 0 -i 0 -k MAC
+ -t 1.074229870 -s 6 -d 8 -p ACK -e 5 -c 2 -a 0 -i 0 -k MAC 
- -t 1.074229870 -s 6 -d 8 -p ACK -e 5 -c 2 -a 0 -i 0 -k MAC
h -t 1.074229870 -s 6 -d 8 -p ACK -e 5 -c 2 -a 0 -i 0 -k MAC
r -t 1.074582482 -s 8 -d 8 -p ACK -e 5 -c 2 -a 0 -i 0 -k MAC
r -t 1.075221870 -s 6 -d 6 -p tcp -e 60 -c 2 -a 0 -i 0 -k MAC
+ -t 1.076551870 -s 6 -d 7 -p tcp -e 67 -c 2 -a 0 -i 0 -k MAC 
- -t 1.076551870 -s 6 -d 7 -p tcp -e 67 -c 2 -a 0 -i 0 -k MAC
h -t 1.076551870 -s 6 -d 7 -p tcp -e 67 -c 2 -a 0 -i 0 -k MAC
+ -t 1.079080205 -s 7 -d 6 -p ACK -e 5 -c 2 -a 0 -i 0 -k MAC 
- -t 1.079080205 -s 7 -d 6 -p ACK -e 5 -c 2 -a 0 -i 0 -k MAC
h -t 1.079080205 -s 7 -d 6 -p ACK -e 5 -c 2 -a 0 -i 0 -k MAC
r -t 1.079432540 -s 6 -d 6 -p ACK -e 5 -c 2 -a 0 -i 0 -k MAC
r -t 1.080072205 -s 7 -d 7 -p tcp -e 60 -c 2 -a 0 -i 0 -k MAC
r -t 1.080097205 -s 7 -d 7 -p tcp -e 60 -c 2 -a 0 -i 0 -k AGT
+ -t 1.080097205 -s 7 -d -1 -p ack -e 40 -c 2 -a 0 -i 1 -k AGT 
- -t 1.080097205 -s 7 -d -1 -p ack -e 40 -c 2 -a 0 -i 1 -k AGT
h -t 1.080097205 -s 7 -d -1 -p ack -e 40 -c 2 -a 0 -i 1 -k AGT
+ -t 1.081082205 -s 7 -d 6 -p ack -e 67 -c 2 -a 0 -i 1 -k MAC 
- -t 1.081082205 -s 7 -d 6 -p ack -e 67 -c 2 -a 0 -i 1 -k MAC
h -t 1.081082205 -s 7 -d 6 -p ack -e 67 -c 2 -a 0 -i 1 -k MAC
+ -t 1.083610540 -s 6 -d 7 -p ACK -e 5 -c 2 -a 0 -i 1 -k MAC 
- -t 1.083610540 -s 6 -d 7 -p ACK -e 5 -c 2 -a 0 -i 1 -k MAC
h -t 1.083610540 -s 6 -d 7 -p ACK -e 5 -c 2 -a 0 -i 1 -k MAC
r -t 1.083962875 -s 7 -d 7 -p ACK -e 5 -c 2 -a 0 -i 1 -k MAC
r -t 1.084602540 -s 6 -d 6 -p ack -e 60 -c 2 -a 0 -i 1 -k MAC
+ -t 1.086892540 -s 6 -d 8 -p ack -e 67 -c 2 -a 0 -i 1 -k MAC 
- -t 1.086892540 -s 6 -d 8 -p ack -e 67 -c 2 -a 0 -i 1 -k MAC
h -t 1.086892540 -s 6 -d 8 -p ack -e 67 -c 2 -a 0 -i 1 -k MAC
+ -t 1.089421152 -s 8 -d 6 -p ACK -e 5 -c 2 -a 0 -i 1 -k MAC 
- -t 1.089421152 -s 8 -d 6 -p ACK -e 5 -c 2 -a 0 -i 1 -k MAC
h -t 1.089421152 -s 8 -d 6 -p ACK -e 5 -c 2 -a 0 -i 1 -k MAC
r -t 1.089773764 -s 6 -d 6 -p ACK -e 5 -c 2 -a 0 -i 1 -k MAC
r -t 1.090413152 -s 8 -d 8 -p ack -e 60 -c 2 -a 0 -i 1 -k MAC
+ -t 1.093023152 -s 8 -d 0 -p ack -e 67 -c 2 -a 0 -i 1 -k MAC 
- -t 1.093023152 -s 8 -d 0 -p ack -e 67 -c 2 -a 0 -i 1 -k MAC
h -t 1.093023152 -s 8 -d 0 -p ack -e 67 -c 2 -a 0 -i 1 -k MAC
+ -t 1.095551578 -s 0 -d 8 -p ACK -e 5 -c 2 -a 0 -i 1 -k MAC 
- -t 1.095551578 -s 0 -d 8 -p ACK -e 5 -c 2 -a 0 -i 1 -k MAC
h -t 1.095551578 -s 0 -d 8 -p ACK -e 5 -c 2 -a 0 -i 1 -k MAC
r -t 1.095904003 -s 8 -d 8 -p ACK -e 5 -c 2 -a 0 -i 1 -k MAC
r -t 1.096543578 -s 0 -d 0 -p ack -e 60 -c 2 -a 0 -i 1 -k MAC
r -t 1.096568578 -s 0 -d 0 -p ack -e 60 -c 2 -a 0 -i 1 -k AGT
+ -t 1.096568578 -s 0 -d -1 -p tcp -e 592 -c 2 -a 0 -i 2 -k AGT 
- -t 1.096568578 -s 0 -d -1 -p tcp -e 592 -c 2 -a 0 -i 2 -k AGT
h -t 1.096568578 -s 0 -d -1 -p tcp -e 592 -c 2 -a 0 -i 2 -k AGT
+ -t 1.096568578 -s 0 -d -1 -p tcp -e 592 -c 2 -a 0 -i 3 -k AGT 
- -t 1.096568578 -s 0 -d -1 -p tcp -e 592 -c 2 -a 0 -i 3 -k AGT
h -t 1.096568578 -s 0 -d -1 -p tcp -e 592 -c 2 -a 0 -i 3 -k AGT
+ -t 1.099153578 -s 0 -d 8 -p tcp -e 107 -c 2 -a 0 -i 2 -k MAC 
- -t 1.099153578 -s 0 -d 8 -p tcp -e 107 -c 2 -a 0 -i 2 -k MAC
h -t 1.099153578 -s 0 -d 8 -p tcp -e 107 -c 2 -a 0 -i 2 -k MAC
+ -t 1.102962003 -s 8 -d 0 -p ACK -e 5 -c 2 -a 0 -i 2 -k MAC 
- -t 1.102962003 -s 8 -d 0 -p ACK -e 5 -c 2 -a 0 -i 2 -k MAC
h -t 1.102962003 -s 8 -d 0 -p ACK -e 5 -c 2 -a 0 -i 2 -k MAC
r -t 1.103314429 -s 0 -d 0 -p ACK -e 5 -c 2 -a 0 -i 2 -k MAC
r -t 1.103954003 -s 8 -d 8 -p tcp -e 100 -c 2 -a 0 -i 2 -k MAC
+ -t 1.105234429 -s 0 -d 8 -p tcp -e 107 -c 2 -a 0 -i 3 -k MAC 
- -t 1.105234429 -s 0 -d 8 -p tcp -e 107 -c 2 -a 0 -i 3 -k MAC
h -t 1.105234429 -s 0 -d 8 -p tcp -e 107 -c 2 -a 0 -i 3 -k MAC
+ -t 1.109042854 -s 8 -d 0 -p ACK -e 5 -c 2 -a 0 -i 3 -k MAC 
- -t 1.109042854 -s 8 -d 0 -p ACK -e 5 -c 2 -a 0 -i 3 -k MAC
h -t 1.109042854 -s 8 -d 0 -p ACK -e 5 -c 2 -a 0 -i 3 -k MAC
r -t 1.109395280 -s 0 -d 0 -p ACK -e 5 -c 2 -a 0 -i 3 -k MAC
r -t 1.110034854 -s 8 -d 8 -p tcp -e 100 -c 2 -a 0 -i 3 -k MAC
+ -t 1.111954854 -s 8 -d 6 -p tcp -e 107 -c 2 -a 0 -i 2 -k MAC 
- -t 1.111954854 -s 8 -d 6 -p tcp -e 107 -c 2 -a 0 -i 2 -k MAC
h -t 1.111954854 -s 8 -d 6 -p tcp -e 107 -c 2 -a 0 -i 2 -k MAC
+ -t 1.115763465 -s 6 -d 8 -p ACK -e 5 -c 2 -a 0 -i 2 -k MAC 
- -t 1.115763465 -s 6 -d 8 -p ACK -e 5 -c 2 -a 0 -i 2 -k MAC
h -t 1.115763465 -s 6 -d 8 -p ACK -e 5 -c 2 -a 0 -i 2 -k MAC
r -t 1.116116076 -s 8 -d 8 -p ACK -e 5 -c 2 -a 0 -i 2 -k MAC
r -t 1.116755465 -s 6 -d 6 -p tcp -e 100 -c 2 -a 0 -i 2 -k MAC
+ -t 1.116756076 -s 8 -d 6 -p tcp -e 107 -c 2 -a 0 -i 3 -k MAC 
- -t 1.116756076 -s 8 -d 6 -p tcp -e 107 -c 2 -a 0 -i 3 -k MAC
h -t 1.116756076 -s 8 -d 6 -p tcp -e 107 -c 2 -a 0 -i 3 -k MAC
+ -t 1.120564687 -s 6 -d 8 -p ACK -e 5 -c 2 -a 0 -i 3 -k MAC 
- -t 1.120564687 -s 6 -d 8 -p ACK -e 5 -c 2 -a 0 -i 3 -k MAC
h -t 1.120564687 -s 6 -d 8 -p ACK -e 5 -c 2 -a 0 -i 3 -k MAC
r -t 1.120917297 -s 8 -d 8 -p ACK -e 5 -c 2 -a 0 -i 3 -k MAC
r -t 1.121556687 -s 6 -d 6 -p tcp -e 100 -c 2 -a 0 -i 3 -k MAC
+ -t 1.121556687 -s 6 -d 7 -p tcp -e 107 -c 2 -a 0 -i 2 -k MAC 
- -t 1.121556687 -s 6 -d 7 -p tcp -e 107 -c 2 -a 0 -i 2 -k MAC
h -t 1.121556687 -s 6 -d 7 -p tcp -e 107 -c 2 -a 0 -i 2 -k MAC
+ -t 1.125365022 -s 7 -d 6 -p ACK -e 5 -c 2 -a 0 -i 2 -k MAC 
- -t 1.125365022 -s 7 -d 6 -p ACK -e 5 -c 2 -a 0 -i 2 -k MAC
h -t 1.125365022 -s 7 -d 6 -p ACK -e 5 -c 2 -a 0 -i 2 -k MAC
r -t 1.125717357 -s 6 -d 6 -p ACK -e 5 -c 2 -a 0 -i 2 -k MAC
r -t 1.126357022 -s 7 -d 7 -p tcp -e 100 -c 2 -a 0 -i 2 -k MAC
r -t 1.126382022 -s 7 -d 7 -p tcp -e 100 -c 2 -a 0 -i 2 -k AGT
+ -t 1.126382022 -s 7 -d -1 -p ack -e 40 -c 2 -a 0 -i 4 -k AGT 
- -t 1.126382022 -s 7 -d -1 -p ack -e 40 -c 2 -a 0 -i 4 -k AGT
h -t 1.126382022 -s 7 -d -1 -p ack -e 40 -c 2 -a 0 -i 4 -k AGT
+ -t 1.127637357 -s 6 -d 7 -p tcp -e 107 -c 2 -a 0 -i 3 -k MAC 
- -t 1.127637357 -s 6 -d 7 -p tcp -e 107 -c 2 -a 0 -i 3 -k MAC
h -t 1.127637357 -s 6 -d 7 -p tcp -e 107 -c 2 -a 0 -i 3 -k MAC
+ -t 1.131445692 -s 7 -d 6 -p ACK -e 5 -c 2 -a 0 -i 3 -k MAC 
- -t 1.131445692 -s 7 -d 6 -p ACK -e 5 -c 2 -a 0 -i 3 -k MAC
h -t 1.131445692 -s 7 -d 6 -p ACK -e 5 -c 2 -a 0 -i 3 -k MAC
r -t 1.131798027 -s 6 -d 6 -p ACK -e 5 -c 2 -a 0 -i 3 -k MAC
r -t 1.132437692 -s 7 -d 7 -p tcp -e 100 -c 2 -a 0 -i 3 -k MAC
r -t 1.132462692 -s 7 -d 7 -p tcp -e 100 -c 2 -a 0 -i 3 -k AGT
+ -t 1.132462692 -s 7 -d -1 -p ack -e 40 -c 2 -a 0 -i 5 -k AGT 
- -t 1.132462692 -s 7 -d -1 -p ack -e 40 -c 2 -a 0 -i 5 -k AGT
h -t 1.132462692 -s 7 -d -1 -p ack -e 40 -c 2 -a 0 -i 5 -k AGT
+ -t 1.134357692 -s 7 -d 6 -p ack -e 67 -c 2 -a 0 -i 4 -k MAC 
- -t 1.134357692 -s 7 -d 6 -p ack -e 67 -c 2 -a 0 -i 4 -k MAC
h -t 1.134357692 -s 7 -d 6 -p ack -e 67 -c 2 -a 0 -i 4 -k MAC
+ -t 1.136886027 -s 6 -d 7 -p ACK -e 5 -c 2 -a 0 -i 4 -k MAC 
- -t 1.136886027 -s 6 -d 7 -p ACK -e 5 -c 2 -a 0 -i 4 -k MAC
h -t 1.136886027 -s 6 -d 7 -p ACK -e 5 -c 2 -a 0 -i 4 -k MAC
r -t 1.137238362 -s 7 -d 7 -p ACK -e 5 -c 2 -a 0 -i 4 -k MAC
r -t 1.137878027 -s 6 -d 6 -p ack -e 60 -c 2 -a 0 -i 4 -k MAC
+ -t 1.139158362 -s 7 -d 6 -p ack -e 67 -c 2 -a 0 -i 5 -k MAC 
- -t 1.139158362 -s 7 -d 6 -p ack -e 67 -c 2 -a 0 -i 5 -k MAC
h -t 1.139158362 -s 7 -d 6 -p ack -e 67 -c 2 -a 0 -i 5 -k MAC
+ -t 1.141686697 -s 6 -d 7 -p ACK -e 5 -c 2 -a 0 -i 5 -k MAC 
- -t 1.141686697 -s 6 -d 7 -p ACK -e 5 -c 2 -a 0 -i 5 -k MAC
h -t 1.141686697 -s 6 -d 7 -p ACK -e 5 -c 2 -a 0 -i 5 -k MAC
r -t 1.142039032 -s 7 -d 7 -p ACK -e 5 -c 2 -a 0 -i 5 -k MAC
r -t 1.142678697 -s 6 -d 6 -p ack -e 60 -c 2 -a 0 -i 5 -k MAC
+ -t 1.144598697 -s 6 -d 8 -p ack -e 67 -c 2 -a 0 -i 4 -k MAC 
- -t 1.144598697 -s 6 -d 8 -p ack -e 67 -c 2 -a 0 -i 4 -k MAC
h -t 1.144598697 -s 6 -d 8 -p ack -e 67 -c 2 -a 0 -i 4 -k MAC
+ -t 1.147127306 -s 8 -d 6 -p ACK -e 5 -c 2 -a 0 -i 4 -k MAC 
- -t 1.147127306 -s 8 -d 6 -p ACK -e 5 -c 2 -a 0 -i 4 -k MAC
h -t 1.147127306 -s 8 -d 6 -p ACK -e 5 -c 2 -a 0 -i 4 -k MAC
r -t 1.147479916 -s 6 -d 6 -p ACK -e 5 -c 2 -a 0 -i 4 -k MAC
r -t 1.148119306 -s 8 -d 8 -p ack -e 60 -c 2 -a 0 -i 4 -k MAC
+ -t 1.148809306 -s 8 -d 0 -p ack -e 67 -c 2 -a 0 -i 4 -k MAC 
- -t 1.148809306 -s 8 -d 0 -p ack -e 67 -c 2 -a 0 -i 4 -k MAC
h -t 1.148809306 -s 8 -d 0 -p ack -e 67 -c 2 -a 0 -i 4 -k MAC
+ -t 1.151337732 -s 0 -d 8 -p ACK -e 5 -c 2 -a 0 -i 4 -k MAC 
- -t 1.151337732 -s 0 -d 8 -p ACK -e 5 -c 2 -a 0 -i 4 -k MAC
h -t 1.151337732 -s 0 -d 8 -p ACK -e 5 -c 2 -a 0 -i 4 -k MAC
r -t 1.151690157 -s 8 -d 8 -p ACK -e 5 -c 2 -a 0 -i 4 -k MAC
r -t 1.152329732 -s 0 -d 0 -p ack -e 60 -c 2 -a 0 -i 4 -k MAC
r -t 1.152354732 -s 0 -d 0 -p ack -e 60 -c 2 -a 0 -i 4 -k AGT
+ -t 1.152354732 -s 0 -d -1 -p tcp -e 592 -c 2 -a 0 -i 6 -k AGT 
- -t 1.152354732 -s 0 -d -1 -p tcp -e 592 -c 2 -a 0 -i 6 -k AGT
h -t 1.152354732 -s 0 -d -1 -p tcp -e 592 -c 2 -a 0 -i 6 -k AGT
+ -t 1.152354732 -s 0 -d -1 -p tcp -e 592 -c 2 -a 0 -i 7 -k AGT 
- -t 1.152354732 -s 0 -d -1 -p tcp -e 592 -c 2 -a 0 -i 7 -k AGT
h -t 1.152354732 -s 0 -d -1 -p tcp -e 592 -c 2 -a 0 -i 7 -k AGT
+ -t 1.154939732 -s 0 -d 8 -p tcp -e 107 -c 2 -a 0 -i 6 -k MAC 
- -t 1.154939732 -s 0 -d 8 -p tcp -e 107 -c 2 -a 0 -i 6 -k MAC
h -t 1.154939732 -s 0 -d 8 -p tcp -e 107 -c 2 -a 0 -i 6 -k MAC
+ -t 1.158748157 -s 8 -d 0 -p ACK -e 5 -c 2 -a 0 -i 6 -k MAC 
- -t 1.158748157 -s 8 -d 0 -p ACK -e 5 -c 2 -a 0 -i 6 -k MAC
h -t 1.158748157 -s 8 -d 0 -p ACK -e 5 -c 2 -a 0 -i 6 -k MAC
r -t 1.159100582 -s 0 -d 0 -p ACK -e 5 -c 2 -a 0 -i 6 -k MAC
+ -t 1.159383916 -s 6 -d 8 -p ack -e 67 -c 2 -a 0 -i 5 -k MAC 
- -t 1.159383916 -s 6 -d 8 -p ack -e 67 -c 2 -a 0 -i 5 -k MAC
h -t 1.159383916 -s 6 -d 8 -p ack -e 67 -c 2 -a 0 -i 5 -k MAC
r -t 1.159740157 -s 8 -d 8 -p tcp -e 100 -c 2 -a 0 -i 6 -k MAC
+ -t 1.161912525 -s 8 -d 6 -p ACK -e 5 -c 2 -a 0 -i 5 -k MAC 
- -t 1.161912525 -s 8 -d 6 -p ACK -e 5 -c 2 -a 0 -i 5 -k MAC
h -t 1.161912525 -s 8 -d 6 -p ACK -e 5 -c 2 -a 0 -i 5 -k MAC
r -t 1.162265134 -s 6 -d 6 -p ACK -e 5 -c 2 -a 0 -i 5 -k MAC
+ -t 1.162748582 -s 0 -d 8 -p tcp -e 107 -c 2 -a 0 -i 7 -k MAC 
- -t 1.162748582 -s 0 -d 8 -p tcp -e 107 -c 2 -a 0 -i 7 -k MAC
h -t 1.162748582 -s 0 -d 8 -p tcp -e 107 -c 2 -a 0 -i 7 -k MAC
r -t 1.162904525 -s 8 -d 8 -p ack -e 60 -c 2 -a 0 -i 5 -k MAC
+ -t 1.166557007 -s 8 -d 0 -p ACK -e 5 -c 2 -a 0 -i 7 -k MAC 
- -t 1.166557007 -s 8 -d 0 -p ACK -e 5 -c 2 -a 0 -i 7 -k MAC
h -t 1.166557007 -s 8 -d 0 -p ACK -e 5 -c 2 -a 0 -i 7 -k MAC
r -t 1.166909431 -s 0 -d 0 -p ACK -e 5 -c 2 -a 0 -i 7 -k MAC
+ -t 1.167229007 -s 8 -d 6 -p tcp -e 107 -c 2 -a 0 -i 6 -k MAC 
- -t 1.167229007 -s 8 -d 6 -p tcp -e 107 -c 2 -a 0 -i 6 -k MAC
h -t 1.167229007 -s 8 -d 6 -p tcp -e 107 -c 2 -a 0 -i 6 -k MAC
r -t 1.167549007 -s 8 -d 8 -p tcp -e 100 -c 2 -a 0 -i 7 -k MAC
+ -t 1.171037615 -s 6 -d 8 -p ACK -e 5 -c 2 -a 0 -i 6 -k MAC 
- -t 1.171037615 -s 6 -d 8 -p ACK -e 5 -c 2 -a 0 -i 6 -k MAC
h -t 1.171037615 -s 6 -d 8 -p ACK -e 5 -c 2 -a 0 -i 6 -k MAC
r -t 1.171390224 -s 8 -d 8 -p ACK -e 5 -c 2 -a 0 -i 6 -k MAC
r -t 1.172029615 -s 6 -d 6 -p tcp -e 100 -c 2 -a 0 -i 6 -k MAC
+ -t 1.172350224 -s 8 -d 0 -p ack -e 67 -c 2 -a 0 -i 5 -k MAC 
- -t 1.172350224 -s 8 -d 0 -p ack -e 67 -c 2 -a 0 -i 5 -k MAC
h -t 1.172350224 -s 8 -d 0 -p ack -e 67 -c 2 -a 0 -i 5 -k MAC
+ -t 1.174878649 -s 0 -d 8 -p ACK -e 5 -c 2 -a 0 -i 5 -k MAC 
- -t 1.174878649 -s 0 -d 8 -p ACK -e 5 -c 2 -a 0 -i 5 -k MAC
h -t 1.174878649 -s 0 -d 8 -p ACK -e 5 -c 2 -a 0 -i 5 -k MAC
r -t 1.175231074 -s 8 -d 8 -p ACK -e 5 -c 2 -a 0 -i 5 -k MAC
r -t 1.175870649 -s 0 -d 0 -p ack -e 60 -c 2 -a 0 -i 5 -k MAC
r -t 1.175895649 -s 0 -d 0 -p ack -e 60 -c 2 -a 0 -i 5 -k AGT
+ -t 1.175895649 -s 0 -d -1 -p tcp -e 592 -c 2 -a 0 -i 8 -k AGT 
- -t 1.175895649 -s 0 -d -1 -p tcp -e 592 -c 2 -a 0 -i 8 -k AGT
h -t 1.175895649 -s 0 -d -1 -p tcp -e 592 -c 2 -a 0 -i 8 -k AGT
+ -t 1.175895649 -s 0 -d -1 -p tcp -e 592 -c 2 -a 0 -i 9 -k AGT 
- -t 1.175895649 -s 0 -d -1 -p tcp -e 592 -c 2 -a 0 -i 9 -k AGT
h -t 1.175895649 -s 0 -d -1 -p tcp -e 592 -c 2 -a 0 -i 9 -k AGT
+ -t 1.176511074 -s 8 -d 6 -p tcp -e 107 -c 2 -a 0 -i 7 -k MAC 
- -t 1.176511074 -s 8 -d 6 -p tcp -e 107 -c 2 -a 0 -i 7 -k MAC
h -t 1.176511074 -s 8 -d 6 -p tcp -e 107 -c 2 -a 0 -i 7 -k MAC
+ -t 1.180319682 -s 6 -d 8 -p ACK -e 5 -c 2 -a 0 -i 7 -k MAC 
- -t 1.180319682 -s 6 -d 8 -p ACK -e 5 -c 2 -a 0 -i 7 -k MAC
h -t 1.180319682 -s 6 -d 8 -p ACK -e 5 -c 2 -a 0 -i 7 -k MAC
r -t 1.180672291 -s 8 -d 8 -p ACK -e 5 -c 2 -a 0 -i 7 -k MAC
r -t 1.181311682 -s 6 -d 6 -p tcp -e 100 -c 2 -a 0 -i 7 -k MAC
+ -t 1.182591682 -s 6 -d 7 -p tcp -e 107 -c 2 -a 0 -i 6 -k MAC 
- -t 1.182591682 -s 6 -d 7 -p tcp -e 107 -c 2 -a 0 -i 6 -k MAC
h -t 1.182591682 -s 6 -d 7 -p tcp -e 107 -c 2 -a 0 -i 6 -k MAC
+ -t 1.186400017 -s 7 -d 6 -p ACK -e 5 -c 2 -a 0 -i 6 -k MAC 
- -t 1.186400017 -s 7 -d 6 -p ACK -e 5 -c 2 -a 0 -i 6 -k MAC
h -t 1.186400017 -s 7 -d 6 -p ACK -e 5 -c 2 -a 0 -i 6 -k MAC
r -t 1.186752352 -s 6 -d 6 -p ACK -e 5 -c 2 -a 0 -i 6 -k MAC
r -t 1.187392017 -s 7 -d 7 -p tcp -e 100 -c 2 -a 0 -i 6 -k MAC
r -t 1.187417017 -s 7 -d 7 -p tcp -e 100 -c 2 -a 0 -i 6 -k AGT
+ -t 1.187417017 -s 7 -d -1 -p ack -e 40 -c 2 -a 0 -i 10 -k AGT 
- -t 1.187417017 -s 7 -d -1 -p ack -e 40 -c 2 -a 0 -i 10 -k AGT
h -t 1.187417017 -s 7 -d -1 -p ack -e 40 -c 2 -a 0 -i 10 -k AGT
+ -t 1.188032352 -s 6 -d 7 -p tcp -e 107 -c 2 -a 0 -i 7 -k MAC 
- -t 1.188032352 -s 6 -d 7 -p tcp -e 107 -c 2 -a 0 -i 7 -k MAC
h -t 1.188032352 -s 6 -d 7 -p tcp -e 107 -c 2 -a 0 -i 7 -k MAC
+ -t 1.191840687 -s 7 -d 6 -p ACK -e 5 -c 2 -a 0 -i 7 -k MAC 
- -t 1.191840687 -s 7 -d 6 -p ACK -e 5 -c 2 -a 0 -i 7 -k MAC
h -t 1.191840687 -s 7 -d 6 -p ACK -e 5 -c 2 -a 0 -i 7 -k MAC
r -t 1.192193022 -s 6 -d 6 -p ACK -e 5 -c 2 -a 0 -i 7 -k MAC
r -t 1.192832687 -s 7 -d 7 -p tcp -e 100 -c 2 -a 0 -i 7 -k MAC
r -t 1.192857687 -s 7 -d 7 -p tcp -e 100 -c 2 -a 0 -i 7 -k AGT
+ -t 1.192857687 -s 7 -d -1 -p ack -e 40 -c 2 -a 0 -i 11 -k AGT 
- -t 1.192857687 -s 7 -d -1 -p ack -e 40 -c 2 -a 0 -i 11 -k AGT
h -t 1.192857687 -s 7 -d -1 -p ack -e 40 -c 2 -a 0 -i 11 -k AGT
+ -t 1.192944649 -s 0 -d 8 -p tcp -e 107 -c 2 -a 0 -i 8 -k MAC 
- -t 1.192944649 -s 0 -d 8 -p tcp -e 107 -c 2 -a 0 -i 8 -k MAC
h -t 1.192944649 -s 0 -d 8 -p tcp -e 107 -c 2 -a 0 -i 8 -k MAC
+ -t 1.196753074 -s 8 -d 0 -p ACK -e 5 -c 2 -a 0 -i 8 -k MAC 
- -t 1.196753074 -s 8 -d 0 -p ACK -e 5 -c 2 -a 0 -i 8 -k MAC
h -t 1.196753074 -s 8 -d 0 -p ACK -e 5 -c 2 -a 0 -i 8 -k MAC
r -t 1.197105498 -s 0 -d 0 -p ACK -e 5 -c 2 -a 0 -i 8 -k MAC
+ -t 1.197425498 -s 0 -d 8 -p tcp -e 107 -c 2 -a 0 -i 9 -k MAC 
- -t 1.197425498 -s 0 -d 8 -p tcp -e 107 -c 2 -a 0 -i 9 -k MAC
h -t 1.197425498 -s 0 -d 8 -p tcp -e 107 -c 2 -a 0 -i 9 -k MAC
r -t 1.197745074 -s 8 -d 8 -p tcp -e 100 -c 2 -a 0 -i 8 -k MAC
+ -t 1.201233923 -s 8 -d 0 -p ACK -e 5 -c 2 -a 0 -i 9 -k MAC 
- -t 1.201233923 -s 8 -d 0 -p ACK -e 5 -c 2 -a 0 -i 9 -k MAC
h -t 1.201233923 -s 8 -d 0 -p ACK -e 5 -c 2 -a 0 -i 9 -k MAC
r -t 1.201586348 -s 0 -d 0 -p ACK -e 5 -c 2 -a 0 -i 9 -k MAC
r -t 1.202225923 -s 8 -d 8 -p tcp -e 100 -c 2 -a 0 -i 9 -k MAC
+ -t 1.203185923 -s 8 -d 6 -p tcp -e 107 -c 2 -a 0 -i 8 -k MAC 
- -t 1.203185923 -s 8 -d 6 -p tcp -e 107 -c 2 -a 0 -i 8 -k MAC
h -t 1.203185923 -s 8 -d 6 -p tcp -e 107 -c 2 -a 0 -i 8 -k MAC
+ -t 1.206994530 -s 6 -d 8 -p ACK -e 5 -c 2 -a 0 -i 8 -k MAC 
- -t 1.206994530 -s 6 -d 8 -p ACK -e 5 -c 2 -a 0 -i 8 -k MAC
h -t 1.206994530 -s 6 -d 8 -p ACK -e 5 -c 2 -a 0 -i 8 -k MAC
r -t 1.207347138 -s 8 -d 8 -p ACK -e 5 -c 2 -a 0 -i 8 -k MAC
r -t 1.207986530 -s 6 -d 6 -p tcp -e 100 -c 2 -a 0 -i 8 -k MAC
+ -t 1.208356530 -s 6 -d 7 -p tcp -e 107 -c 2 -a 0 -i 8 -k MAC 
- -t 1.208356530 -s 6 -d 7 -p tcp -e 107 -c 2 -a 0 -i 8 -k MAC
h -t 1.208356530 -s 6 -d 7 -p tcp -e 107 -c 2 -a 0 -i 8 -k MAC
+ -t 1.212164865 -s 7 -d 6 -p ACK -e 5 -c 2 -a 0 -i 8 -k MAC 
- -t 1.212164865 -s 7 -d 6 -p ACK -e 5 -c 2 -a 0 -i 8 -k MAC
h -t 1.212164865 -s 7 -d 6 -p ACK -e 5 -c 2 -a 0 -i 8 -k MAC
r -t 1.212517201 -s 6 -d 6 -p ACK -e 5 -c 2 -a 0 -i 8 -k MAC
r -t 1.213156865 -s 7 -d 7 -p tcp -e 100 -c 2 -a 0 -i 8 -k MAC
r -t 1.213181865 -s 7 -d 7 -p tcp -e 100 -c 2 -a 0 -i 8 -k AGT
+ -t 1.213181865 -s 7 -d -1 -p ack -e 40 -c 2 -a 0 -i 12 -k AGT 
- -t 1.213181865 -s 7 -d -1 -p ack -e 40 -c 2 -a 0 -i 12 -k AGT
h -t 1.213181865 -s 7 -d -1 -p ack -e 40 -c 2 -a 0 -i 12 -k AGT
+ -t 1.214116865 -s 7 -d 6 -p ack -e 67 -c 2 -a 0 -i 10 -k MAC 
- -t 1.214116865 -s 7 -d 6 -p ack -e 67 -c 2 -a 0 -i 10 -k MAC
h -t 1.214116865 -s 7 -d 6 -p ack -e 67 -c 2 -a 0 -i 10 -k MAC
+ -t 1.216645201 -s 6 -d 7 -p ACK -e 5 -c 2 -a 0 -i 10 -k MAC 
- -t 1.216645201 -s 6 -d 7 -p ACK -e 5 -c 2 -a 0 -i 10 -k MAC
h -t 1.216645201 -s 6 -d 7 -p ACK -e 5 -c 2 -a 0 -i 10 -k MAC
r -t 1.216997536 -s 7 -d 7 -p ACK -e 5 -c 2 -a 0 -i 10 -k MAC
r -t 1.217637201 -s 6 -d 6 -p ack -e 60 -c 2 -a 0 -i 10 -k MAC
+ -t 1.218917536 -s 7 -d 6 -p ack -e 67 -c 2 -a 0 -i 11 -k MAC 
- -t 1.218917536 -s 7 -d 6 -p ack -e 67 -c 2 -a 0 -i 11 -k MAC
h -t 1.218917536 -s 7 -d 6 -p ack -e 67 -c 2 -a 0 -i 11 -k MAC
+ -t 1.221445871 -s 6 -d 7 -p ACK -e 5 -c 2 -a 0 -i 11 -k MAC 
- -t 1.221445871 -s 6 -d 7 -p ACK -e 5 -c 2 -a 0 -i 11 -k MAC
h -t 1.221445871 -s 6 -d 7 -p ACK -e 5 -c 2 -a 0 -i 11 -k MAC