M 1.00000 8 (485.22, 140.73, 0.00), (650.00, 120.00), 30.00
M 1.00000 9 (650.22, 140.73, 0.00), (485.00, 120.00), 30.00
s 1.000000000 _0_ AGT  --- 0 tcp 40 [0 0 0 0] [energy 0.500000] ------- [0:0 7:0 32 0] [0 0] 0 0
s 1.000665000 _0_ MAC  --- 0 AODV 55 [0 ffffffff 0 800] [energy 0.500000] ------- [0:255 -1:255 30 0] [0x2 1 1 [7 0] [0 4]] (REQUEST)
r 1.003257129 _1_ MAC  --- 0 AODV 48 [0 ffffffff 0 800] [energy 0.499919] ------- [0:255 -1:255 30 0] [0x2 1 1 [7 0] [0 4]] (REQUEST)
r 1.003257262 _2_ MAC  --- 0 AODV 48 [0 ffffffff 0 800] [energy 0.499919] ------- [0:255 -1:255 30 0] [0x2 1 1 [7 0] [0 4]] (REQUEST)
r 1.003257383 _3_ MAC  --- 0 AODV 48 [0 ffffffff 0 800] [energy 0.499919] ------- [0:255 -1:255 30 0] [0x2 1 1 [7 0] [0 4]] (REQUEST)
r 1.003257427 _8_ MAC  --- 0 AODV 48 [0 ffffffff 0 800] [energy 0.499919] ------- [0:255 -1:255 30 0] [0x2 1 1 [7 0] [0 4]] (REQUEST)
r 1.003257516 _4_ MAC  --- 0 AODV 48 [0 ffffffff 0 800] [energy 0.499919] ------- [0:255 -1:255 30 0] [0x2 1 1 [7 0] [0 4]] (REQUEST)
r 1.003257647 _5_ MAC  --- 0 AODV 48 [0 ffffffff 0 800] [energy 0.499919] ------- [0:255 -1:255 30 0] [0x2 1 1 [7 0] [0 4]] (REQUEST)
r 1.003257695 _9_ MAC  --- 0 AODV 48 [0 ffffffff 0 800] [energy 0.499919] ------- [0:255 -1:255 30 0] [0x2 1 1 [7 0] [0 4]] (REQUEST)
s 1.006999683 _8_ MAC  --- 0 AODV 55 [0 ffffffff 8 800] [energy 0.499919] ------- [8:255 -1:255 29 0] [0x2 2 1 [7 0] [0 4]] (REQUEST)
r 1.009592110 _0_ MAC  --- 0 AODV 48 [0 ffffffff 8 800] [energy 0.499876] ------- [8:255 -1:255 29 0] [0x2 2 1 [7 0] [0 4]] (REQUEST)
r 1.009592168 _1_ MAC  --- 0 AODV 48 [0 ffffffff 8 800] [energy 0.499838] ------- [8:255 -1:255 29 0] [0x2 2 1 [7 0] [0 4]] (REQUEST)
r 1.009592232 _9_ MAC  --- 0 AODV 48 [0 ffffffff 8 800] [energy 0.499838] ------- [8:255 -1:255 29 0] [0x2 2 1 [7 0] [0 4]] (REQUEST)
r 1.009592234 _2_ MAC  --- 0 AODV 48 [0 ffffffff 8 800] [energy 0.499838] ------- [8:255 -1:255 29 0] [0x2 2 1 [7 0] [0 4]] (REQUEST)
r 1.009592292 _3_ MAC  --- 0 AODV 48 [0 ffffffff 8 800] [energy 0.499838] ------- [8:255 -1:255 29 0] [0x2 2 1 [7 0] [0 4]] (REQUEST)
r 1.009592298 _6_ MAC  --- 0 AODV 48 [0 ffffffff 8 800] [energy 0.499876] ------- [8:255 -1:255 29 0] [0x2 2 1 [7 0] [0 4]] (REQUEST)
r 1.009592382 _4_ MAC  --- 0 AODV 48 [0 ffffffff 8 800] [energy 0.499838] ------- [8:255 -1:255 29 0] [0x2 2 1 [7 0] [0 4]] (REQUEST)
r 1.009592457 _5_ MAC  --- 0 AODV 48 [0 ffffffff 8 800] [energy 0.499838] ------- [8:255 -1:255 29 0] [0x2 2 1 [7 0] [0 4]] (REQUEST)
s 1.010401137 _5_ MAC  --- 0 AODV 55 [0 ffffffff 5 800] [energy 0.499838] ------- [5:255 -1:255 29 0] [0x2 2 1 [7 0] [0 4]] (REQUEST)
s 1.012567802 _1_ MAC  --- 0 AODV 55 [0 ffffffff 1 800] [energy 0.499756] ------- [1:255 -1:255 29 0] [0x2 2 1 [7 0] [0 4]] (REQUEST)
s 1.012665514 _2_ MAC  --- 0 AODV 55 [0 ffffffff 2 800] [energy 0.499715] ------- [2:255 -1:255 29 0] [0x2 2 1 [7 0] [0 4]] (REQUEST)
r 1.012993280 _4_ MAC  --- 0 AODV 48 [0 ffffffff 5 800] [energy 0.499698] ------- [5:255 -1:255 29 0] [0x2 2 1 [7 0] [0 4]] (REQUEST)
r 1.012993410 _3_ MAC  --- 0 AODV 48 [0 ffffffff 5 800] [energy 0.499698] ------- [5:255 -1:255 29 0] [0x2 2 1 [7 0] [0 4]] (REQUEST)
r 1.012993534 _2_ MAC  --- 0 AODV 48 [0 ffffffff 5 800] [energy 0.499698] ------- [5:255 -1:255 29 0] [0x2 2 1 [7 0] [0 4]] (REQUEST)
r 1.012993572 _9_ MAC  --- 0 AODV 48 [0 ffffffff 5 800] [energy 0.499698] ------- [5:255 -1:255 29 0] [0x2 2 1 [7 0] [0 4]] (REQUEST)
r 1.012993664 _1_ MAC  --- 0 AODV 48 [0 ffffffff 5 800] [energy 0.499698] ------- [5:255 -1:255 29 0] [0x2 2 1 [7 0] [0 4]] (REQUEST)
r 1.012993784 _0_ MAC  --- 0 AODV 48 [0 ffffffff 5 800] [energy 0.499736] ------- [5:255 -1:255 29 0] [0x2 2 1 [7 0] [0 4]] (REQUEST)
r 1.012993910 _8_ MAC  --- 0 AODV 48 [0 ffffffff 5 800] [energy 0.499736] ------- [5:255 -1:255 29 0] [0x2 2 1 [7 0] [0 4]] (REQUEST)
D 1.014519932 _0_ MAC  LQI 0 AODV 55 [0 ffffffff 1 800] [energy 0.499698] ------- [1:255 -1:255 29 0] [0x2 2 1 [7 0] [0 4]] (REQUEST)
D 1.014520287 _8_ MAC  LQI 0 AODV 55 [0 ffffffff 1 800] [energy 0.499698] ------- [1:255 -1:255 29 0] [0x2 2 1 [7 0] [0 4]] (REQUEST)
D 1.014617639 _3_ MAC  LQI 0 AODV 55 [0 ffffffff 2 800] [energy 0.499659] ------- [2:255 -1:255 29 0] [0x2 2 1 [7 0] [0 4]] (REQUEST)
D 1.014617773 _4_ MAC  LQI 0 AODV 55 [0 ffffffff 2 800] [energy 0.499659] ------- [2:255 -1:255 29 0] [0x2 2 1 [7 0] [0 4]] (REQUEST)
D 1.014617912 _5_ MAC  LQI 0 AODV 55 [0 ffffffff 2 800] [energy 0.499697] ------- [2:255 -1:255 29 0] [0x2 2 1 [7 0] [0 4]] (REQUEST)
D 1.014618083 _9_ MAC  LQI 0 AODV 55 [0 ffffffff 2 800] [energy 0.499659] ------- [2:255 -1:255 29 0] [0x2 2 1 [7 0] [0 4]] (REQUEST)
s 1.015284373 _6_ MAC  --- 0 AODV 55 [0 ffffffff 6 800] [energy 0.499774] ------- [6:255 -1:255 28 0] [0x2 3 1 [7 0] [0 4]] (REQUEST)
r 1.017876708 _7_ MAC  --- 0 AODV 48 [0 ffffffff 6 800] [energy 0.499731] ------- [6:255 -1:255 28 0] [0x2 3 1 [7 0] [0 4]] (REQUEST)
r 1.017876956 _9_ MAC  --- 0 AODV 48 [0 ffffffff 6 800] [energy 0.499578] ------- [6:255 -1:255 28 0] [0x2 3 1 [7 0] [0 4]] (REQUEST)
r 1.017876988 _8_ MAC  --- 0 AODV 48 [0 ffffffff 6 800] [energy 0.499616] ------- [6:255 -1:255 28 0] [0x2 3 1 [7 0] [0 4]] (REQUEST)
s 1.018666581 _4_ MAC  --- 0 AODV 55 [0 ffffffff 4 800] [energy 0.499616] ------- [4:255 -1:255 29 0] [0x2 2 1 [7 0] [0 4]] (REQUEST)
r 1.021258715 _3_ MAC  --- 0 AODV 48 [0 ffffffff 4 800] [energy 0.499535] ------- [4:255 -1:255 29 0] [0x2 2 1 [7 0] [0 4]] (REQUEST)
r 1.021258724 _5_ MAC  --- 0 AODV 48 [0 ffffffff 4 800] [energy 0.499573] ------- [4:255 -1:255 29 0] [0x2 2 1 [7 0] [0 4]] (REQUEST)
r 1.021258840 _2_ MAC  --- 0 AODV 48 [0 ffffffff 4 800] [energy 0.499574] ------- [4:255 -1:255 29 0] [0x2 2 1 [7 0] [0 4]] (REQUEST)
r 1.021258972 _1_ MAC  --- 0 AODV 48 [0 ffffffff 4 800] [energy 0.499574] ------- [4:255 -1:255 29 0] [0x2 2 1 [7 0] [0 4]] (REQUEST)
r 1.021259056 _9_ MAC  --- 0 AODV 48 [0 ffffffff 4 800] [energy 0.499497] ------- [4:255 -1:255 29 0] [0x2 2 1 [7 0] [0 4]] (REQUEST)
r 1.021259097 _0_ MAC  --- 0 AODV 48 [0 ffffffff 4 800] [energy 0.499574] ------- [4:255 -1:255 29 0] [0x2 2 1 [7 0] [0 4]] (REQUEST)
r 1.021259279 _8_ MAC  --- 0 AODV 48 [0 ffffffff 4 800] [energy 0.499535] ------- [4:255 -1:255 29 0] [0x2 2 1 [7 0] [0 4]] (REQUEST)
s 1.021746014 _9_ MAC  --- 0 AODV 55 [0 ffffffff 9 800] [energy 0.499497] ------- [9:255 -1:255 29 0] [0x2 2 1 [7 0] [0 4]] (REQUEST)
r 1.024338450 _5_ MAC  --- 0 AODV 48 [0 ffffffff 9 800] [energy 0.499492] ------- [9:255 -1:255 29 0] [0x2 2 1 [7 0] [0 4]] (REQUEST)
r 1.024338489 _4_ MAC  --- 0 AODV 48 [0 ffffffff 9 800] [energy 0.499492] ------- [9:255 -1:255 29 0] [0x2 2 1 [7 0] [0 4]] (REQUEST)
r 1.024338518 _3_ MAC  --- 0 AODV 48 [0 ffffffff 9 800] [energy 0.499454] ------- [9:255 -1:255 29 0] [0x2 2 1 [7 0] [0 4]] (REQUEST)
r 1.024338560 _8_ MAC  --- 0 AODV 48 [0 ffffffff 9 800] [energy 0.499454] ------- [9:255 -1:255 29 0] [0x2 2 1 [7 0] [0 4]] (REQUEST)
r 1.024338583 _2_ MAC  --- 0 AODV 48 [0 ffffffff 9 800] [energy 0.499493] ------- [9:255 -1:255 29 0] [0x2 2 1 [7 0] [0 4]] (REQUEST)
r 1.024338597 _6_ MAC  --- 0 AODV 48 [0 ffffffff 9 800] [energy 0.499607] ------- [9:255 -1:255 29 0] [0x2 2 1 [7 0] [0 4]] (REQUEST)
r 1.024338647 _1_ MAC  --- 0 AODV 48 [0 ffffffff 9 800] [energy 0.499493] ------- [9:255 -1:255 29 0] [0x2 2 1 [7 0] [0 4]] (REQUEST)
r 1.024338708 _0_ MAC  --- 0 AODV 48 [0 ffffffff 9 800] [energy 0.499493] ------- [9:255 -1:255 29 0] [0x2 2 1 [7 0] [0 4]] (REQUEST)
s 1.024870977 _3_ MAC  --- 0 AODV 55 [0 ffffffff 3 800] [energy 0.499454] ------- [3:255 -1:255 29 0] [0x2 2 1 [7 0] [0 4]] (REQUEST)
r 1.027463102 _2_ MAC  --- 0 AODV 48 [0 ffffffff 3 800] [energy 0.499411] ------- [3:255 -1:255 29 0] [0x2 2 1 [7 0] [0 4]] (REQUEST)
r 1.027463111 _4_ MAC  --- 0 AODV 48 [0 ffffffff 3 800] [energy 0.499411] ------- [3:255 -1:255 29 0] [0x2 2 1 [7 0] [0 4]] (REQUEST)
r 1.027463234 _1_ MAC  --- 0 AODV 48 [0 ffffffff 3 800] [energy 0.499411] ------- [3:255 -1:255 29 0] [0x2 2 1 [7 0] [0 4]] (REQUEST)
r 1.027463250 _5_ MAC  --- 0 AODV 48 [0 ffffffff 3 800] [energy 0.499410] ------- [3:255 -1:255 29 0] [0x2 2 1 [7 0] [0 4]] (REQUEST)
r 1.027463360 _0_ MAC  --- 0 AODV 48 [0 ffffffff 3 800] [energy 0.499411] ------- [3:255 -1:255 29 0] [0x2 2 1 [7 0] [0 4]] (REQUEST)
r 1.027463481 _9_ MAC  --- 0 AODV 48 [0 ffffffff 3 800] [energy 0.499373] ------- [3:255 -1:255 29 0] [0x2 2 1 [7 0] [0 4]] (REQUEST)
r 1.027463584 _8_ MAC  --- 0 AODV 48 [0 ffffffff 3 800] [energy 0.499373] ------- [3:255 -1:255 29 0] [0x2 2 1 [7 0] [0 4]] (REQUEST)
s 1.028978708 _7_ MAC  --- 0 ARP 35 [0 ffffffff 7 806] [energy 0.499603] ------- [REQUEST 7/7 0/6]
r 1.030931043 _6_ MAC  --- 0 ARP 28 [0 ffffffff 7 806] [energy 0.499511] ------- [REQUEST 7/7 0/6]
s 1.032856043 _6_ MAC  --- 0 ARP 35 [0 7 6 806] [energy 0.499511] ------- [REPLY 6/6 7/7]
s 1.034360378 _7_ MAC  --- 0 ACK 5 [0 6 7 0] [energy 0.499521] 
r 1.034712713 _6_ MAC  --- 0 ACK 5 [0 6 7 0] [energy 0.499471] 
r 1.035352378 _7_ MAC  --- 0 ARP 28 [0 7 6 806] [energy 0.499513] ------- [REPLY 6/6 7/7]
s 1.037277378 _7_ MAC  --- 0 AODV 51 [0 6 7 800] [energy 0.499513] ------- [7:255 0:255 30 6] [0x4 1 [7 4] 10.000000] (REPLY)
s 1.039293713 _6_ MAC  --- 0 ACK 5 [0 7 6 0] [energy 0.499396] 
r 1.039646048 _7_ MAC  --- 0 ACK 5 [0 7 6 0] [energy 0.499462] 
r 1.040285713 _6_ MAC  --- 0 AODV 44 [0 6 7 800] [energy 0.499390] ------- [7:255 0:255 30 6] [0x4 1 [7 4] 10.000000] (REPLY)
s 1.042875713 _6_ MAC  --- 0 ARP 35 [0 ffffffff 6 806] [energy 0.499390] ------- [REQUEST 6/6 0/8]
r 1.044828048 _7_ MAC  --- 0 ARP 28 [0 ffffffff 6 806] [energy 0.499409] ------- [REQUEST 6/6 0/8]
r 1.044828296 _9_ MAC  --- 0 ARP 28 [0 ffffffff 6 806] [energy 0.499207] ------- [REQUEST 6/6 0/8]
r 1.044828327 _8_ MAC  --- 0 ARP 28 [0 ffffffff 6 806] [energy 0.499207] ------- [REQUEST 6/6 0/8]
s 1.045153327 _8_ MAC  --- 0 ARP 35 [0 6 8 806] [energy 0.499207] ------- [REPLY 8/8 6/6]
s 1.046657940 _6_ MAC  --- 0 ACK 5 [0 8 6 0] [energy 0.499308] 
r 1.047010554 _8_ MAC  --- 0 ACK 5 [0 8 6 0] [energy 0.499167] 
r 1.047649940 _6_ MAC  --- 0 ARP 28 [0 6 8 806] [energy 0.499300] ------- [REPLY 8/8 6/6]
s 1.049894940 _6_ MAC  --- 0 AODV 51 [0 8 6 800] [energy 0.499300] ------- [7:255 0:255 29 8] [0x4 2 [7 4] 10.000000] (REPLY)
s 1.051911554 _8_ MAC  --- 0 ACK 5 [0 6 8 0] [energy 0.499091] 
r 1.052264167 _6_ MAC  --- 0 ACK 5 [0 6 8 0] [energy 0.499249] 
r 1.052903554 _8_ MAC  --- 0 AODV 44 [0 8 6 800] [energy 0.499086] ------- [7:255 0:255 29 8] [0x4 2 [7 4] 10.000000] (REPLY)
s 1.054213554 _8_ MAC  --- 0 ARP 35 [0 ffffffff 8 806] [energy 0.499086] ------- [REQUEST 8/8 0/0]
r 1.056165980 _0_ MAC  --- 0 ARP 28 [0 ffffffff 8 806] [energy 0.499133] ------- [REQUEST 8/8 0/0]
r 1.056166037 _1_ MAC  --- 0 ARP 28 [0 ffffffff 8 806] [energy 0.499133] ------- [REQUEST 8/8 0/0]
r 1.056166093 _9_ MAC  --- 0 ARP 28 [0 ffffffff 8 806] [energy 0.499070] ------- [REQUEST 8/8 0/0]
r 1.056166102 _2_ MAC  --- 0 ARP 28 [0 ffffffff 8 806] [energy 0.499133] ------- [REQUEST 8/8 0/0]
r 1.056166159 _3_ MAC  --- 0 ARP 28 [0 ffffffff 8 806] [energy 0.499133] ------- [REQUEST 8/8 0/0]
r 1.056166167 _6_ MAC  --- 0 ARP 28 [0 ffffffff 8 806] [energy 0.499196] ------- [REQUEST 8/8 0/0]
r 1.056166249 _4_ MAC  --- 0 ARP 28 [0 ffffffff 8 806] [energy 0.499133] ------- [REQUEST 8/8 0/0]
r 1.056166323 _5_ MAC  --- 0 ARP 28 [0 ffffffff 8 806] [energy 0.499132] ------- [REQUEST 8/8 0/0]
s 1.057770980 _0_ MAC  --- 0 ARP 35 [0 8 0 806] [energy 0.499133] ------- [REPLY 0/0 8/8]
s 1.059275406 _8_ MAC  --- 0 ACK 5 [0 0 8 0] [energy 0.499004] 
r 1.059627832 _0_ MAC  --- 0 ACK 5 [0 0 8 0] [energy 0.499093] 
r 1.060267406 _8_ MAC  --- 0 ARP 28 [0 8 0 806] [energy 0.498996] ------- [REPLY 0/0 8/8]
s 1.060912406 _8_ MAC  --- 0 AODV 51 [0 0 8 800] [energy 0.498996] ------- [7:255 0:255 28 0] [0x4 3 [7 4] 10.000000] (REPLY)
s 1.062928832 _0_ MAC  --- 0 ACK 5 [0 8 0 0] [energy 0.499017] 
r 1.063281258 _8_ MAC  --- 0 ACK 5 [0 8 0 0] [energy 0.498945] 
r 1.063920832 _0_ MAC  --- 0 AODV 44 [0 0 8 800] [energy 0.499012] ------- [7:255 0:255 28 0] [0x4 3 [7 4] 10.000000] (REPLY)
s 1.065890832 _0_ MAC  --- 0 tcp 67 [0 8 0 800] [energy 0.499012] ------- [0:0 7:0 30 8] [0 0] 0 0
s 1.068419258 _8_ MAC  --- 0 ACK 5 [0 0 8 0] [energy 0.498847] 
r 1.068771683 _0_ MAC  --- 0 ACK 5 [0 0 8 0] [energy 0.498949] 
r 1.069411258 _8_ MAC  --- 0 tcp 60 [0 8 0 800] [energy 0.498847] ------- [0:0 7:0 30 8] [0 0] 1 0
s 1.071701258 _8_ MAC  --- 0 tcp 67 [0 6 8 800] [energy 0.498847] ------- [0:0 7:0 29 6] [0 0] 1 0
s 1.074229870 _6_ MAC  --- 0 ACK 5 [0 8 6 0] [energy 0.498955] 
r 1.074582482 _8_ MAC  --- 0 ACK 5 [0 8 6 0] [energy 0.498785] 
r 1.075221870 _6_ MAC  --- 0 tcp 60 [0 6 8 800] [energy 0.498955] ------- [0:0 7:0 29 6] [0 0] 2 0
s 1.076551870 _6_ MAC  --- 0 tcp 67 [0 7 6 800] [energy 0.498955] ------- [0:0 7:0 28 7] [0 0] 2 0
s 1.079080205 _7_ MAC  --- 0 ACK 5 [0 6 7 0] [energy 0.498997] 
r 1.079432540 _6_ MAC  --- 0 ACK 5 [0 6 7 0] [energy 0.498893] 
r 1.080072205 _7_ MAC  --- 0 tcp 60 [0 7 6 800] [energy 0.498997] ------- [0:0 7:0 28 7] [0 0] 3 0
r 1.080097205 _7_ AGT  --- 0 tcp 60 [0 7 6 800] [energy 0.498997] ------- [0:0 7:0 28 7] [0 0] 3 0
s 1.080097205 _7_ AGT  --- 1 ack 40 [0 0 0 0] [energy 0.498997] ------- [7:0 0:0 32 0] [0 0] 0 0
s 1.081082205 _7_ MAC  --- 1 ack 67 [0 6 7 800] [energy 0.498997] ------- [7:0 0:0 30 6] [0 0] 0 0
s 1.083610540 _6_ MAC  --- 1 ACK 5 [0 7 6 0] [energy 0.498795] 
r 1.083962875 _7_ MAC  --- 1 ACK 5 [0 7 6 0] [energy 0.498934] 
r 1.084602540 _6_ MAC  --- 1 ack 60 [0 6 7 800] [energy 0.498795] ------- [7:0 0:0 30 6] [0 0] 1 0
s 1.086892540 _6_ MAC  --- 1 ack 67 [0 8 6 800] [energy 0.498795] ------- [7:0 0:0 29 8] [0 0] 1 0
s 1.089421152 _8_ MAC  --- 1 ACK 5 [0 6 8 0] [energy 0.498569] 
r 1.089773764 _6_ MAC  --- 1 ACK 5 [0 6 8 0] [energy 0.498733] 
r 1.090413152 _8_ MAC  --- 1 ack 60 [0 8 6 800] [energy 0.498569] ------- [7:0 0:0 29 8] [0 0] 2 0
s 1.093023152 _8_ MAC  --- 1 ack 67 [0 0 8 800] [energy 0.498569] ------- [7:0 0:0 28 0] [0 0] 2 0
s 1.095551578 _0_ MAC  --- 1 ACK 5 [0 8 0 0] [energy 0.498616] 
r 1.095904003 _8_ MAC  --- 1 ACK 5 [0 8 0 0] [energy 0.498507] 
r 1.096543578 _0_ MAC  --- 1 ack 60 [0 0 8 800] [energy 0.498616] ------- [7:0 0:0 28 0] [0 0] 3 0
r 1.096568578 _0_ AGT  --- 1 ack 60 [0 0 8 800] [energy 0.498616] ------- [7:0 0:0 28 0] [0 0] 3 0
s 1.096568578 _0_ AGT  --- 2 tcp 592 [0 0 0 0] [energy 0.498616] ------- [0:0 7:0 32 0] [1 0] 0 0
s 1.096568578 _0_ AGT  --- 3 tcp 592 [0 0 0 0] [energy 0.498616] ------- [0:0 7:0 32 0] [2 0] 0 0
s 1.099153578 _0_ MAC  --- 2 tcp 107 [0 8 0 800] [energy 0.498616] ------- [0:0 7:0 30 8] [1 0] 0 0
s 1.102962003 _8_ MAC  --- 2 ACK 5 [0 0 8 0] [energy 0.498353] 
r 1.103314429 _0_ MAC  --- 2 ACK 5 [0 0 8 0] [energy 0.498526] 
r 1.103954003 _8_ MAC  --- 2 tcp 100 [0 8 0 800] [energy 0.498353] ------- [0:0 7:0 30 8] [1 0] 1 0
s 1.105234429 _0_ MAC  --- 3 tcp 107 [0 8 0 800] [energy 0.498526] ------- [0:0 7:0 30 8] [2 0] 0 0
s 1.109042854 _8_ MAC  --- 3 ACK 5 [0 0 8 0] [energy 0.498199] 
r 1.109395280 _0_ MAC  --- 3 ACK 5 [0 0 8 0] [energy 0.498436] 
r 1.110034854 _8_ MAC  --- 3 tcp 100 [0 8 0 800] [energy 0.498199] ------- [0:0 7:0 30 8] [2 0] 1 0
s 1.111954854 _8_ MAC  --- 2 tcp 107 [0 6 8 800] [energy 0.498199] ------- [0:0 7:0 29 6] [1 0] 1 0
s 1.115763465 _6_ MAC  --- 2 ACK 5 [0 8 6 0] [energy 0.498346] 
r 1.116116076 _8_ MAC  --- 2 ACK 5 [0 8 6 0] [energy 0.498109] 
r 1.116755465 _6_ MAC  --- 2 tcp 100 [0 6 8 800] [energy 0.498346] ------- [0:0 7:0 29 6] [1 0] 2 0
s 1.116756076 _8_ MAC  --- 3 tcp 107 [0 6 8 800] [energy 0.498109] ------- [0:0 7:0 29 6] [2 0] 1 0
s 1.120564687 _6_ MAC  --- 3 ACK 5 [0 8 6 0] [energy 0.498192] 
r 1.120917297 _8_ MAC  --- 3 ACK 5 [0 8 6 0] [energy 0.498018] 
r 1.121556687 _6_ MAC  --- 3 tcp 100 [0 6 8 800] [energy 0.498192] ------- [0:0 7:0 29 6] [2 0] 2 0
s 1.121556687 _6_ MAC  --- 2 tcp 107 [0 7 6 800] [energy 0.498192] ------- [0:0 7:0 28 7] [1 0] 2 0
s 1.125365022 _7_ MAC  --- 2 ACK 5 [0 6 7 0] [energy 0.498315] 
r 1.125717357 _6_ MAC  --- 2 ACK 5 [0 6 7 0] [energy 0.498102] 
r 1.126357022 _7_ MAC  --- 2 tcp 100 [0 7 6 800] [energy 0.498315] ------- [0:0 7:0 28 7] [1 0] 3 0
r 1.126382022 _7_ AGT  --- 2 tcp 100 [0 7 6 800] [energy 0.498315] ------- [0:0 7:0 28 7] [1 0] 3 0
s 1.126382022 _7_ AGT  --- 4 ack 40 [0 0 0 0] [energy 0.498315] ------- [7:0 0:0 32 0] [1 0] 0 0
s 1.127637357 _6_ MAC  --- 3 tcp 107 [0 7 6 800] [energy 0.498102] ------- [0:0 7:0 28 7] [2 0] 2 0
s 1.131445692 _7_ MAC  --- 3 ACK 5 [0 6 7 0] [energy 0.498161] 
r 1.131798027 _6_ MAC  --- 3 ACK 5 [0 6 7 0] [energy 0.498012] 
r 1.132437692 _7_ MAC  --- 3 tcp 100 [0 7 6 800] [energy 0.498161] ------- [0:0 7:0 28 7] [2 0] 3 0
r 1.132462692 _7_ AGT  --- 3 tcp 100 [0 7 6 800] [energy 0.498161] ------- [0:0 7:0 28 7] [2 0] 3 0
s 1.132462692 _7_ AGT  --- 5 ack 40 [0 0 0 0] [energy 0.498161] ------- [7:0 0:0 32 0] [2 0] 0 0
s 1.134357692 _7_ MAC  --- 4 ack 67 [0 6 7 800] [energy 0.498161] ------- [7:0 0:0 30 6] [1 0] 0 0
s 1.136886027 _6_ MAC  --- 4 ACK 5 [0 7 6 0] [energy 0.497914] 
r 1.137238362 _7_ MAC  --- 4 ACK 5 [0 7 6 0] [energy 0.498099] 
r 1.137878027 _6_ MAC  --- 4 ack 60 [0 6 7 800] [energy 0.497914] ------- [7:0 0:0 30 6] [1 0] 1 0
s 1.139158362 _7_ MAC  --- 5 ack 67 [0 6 7 800] [energy 0.498099] ------- [7:0 0:0 30 6] [2 0] 0 0
s 1.141686697 _6_ MAC  --- 5 ACK 5 [0 7 6 0] [energy 0.497816] 
r 1.142039032 _7_ MAC  --- 5 ACK 5 [0 7 6 0] [energy 0.498037] 
r 1.142678697 _6_ MAC  --- 5 ack 60 [0 6 7 800] [energy 0.497816] ------- [7:0 0:0 30 6] [2 0] 1 0
s 1.144598697 _6_ MAC  --- 4 ack 67 [0 8 6 800] [energy 0.497816] ------- [7:0 0:0 29 8] [1 0] 1 0
s 1.147127306 _8_ MAC  --- 4 ACK 5 [0 6 8 0] [energy 0.497629] 
r 1.147479916 _6_ MAC  --- 4 ACK 5 [0 6 8 0] [energy 0.497753] 
r 1.148119306 _8_ MAC  --- 4 ack 60 [0 8 6 800] [energy 0.497629] ------- [7:0 0:0 29 8] [1 0] 2 0
s 1.148809306 _8_ MAC  --- 4 ack 67 [0 0 8 800] [energy 0.497629] ------- [7:0 0:0 28 0] [1 0] 2 0
s 1.151337732 _0_ MAC  --- 4 ACK 5 [0 8 0 0] [energy 0.497814] 
r 1.151690157 _8_ MAC  --- 4 ACK 5 [0 8 0 0] [energy 0.497567] 
r 1.152329732 _0_ MAC  --- 4 ack 60 [0 0 8 800] [energy 0.497814] ------- [7:0 0:0 28 0] [1 0] 3 0
r 1.152354732 _0_ AGT  --- 4 ack 60 [0 0 8 800] [energy 0.497814] ------- [7:0 0:0 28 0] [1 0] 3 0
s 1.152354732 _0_ AGT  --- 6 tcp 592 [0 0 0 0] [energy 0.497814] ------- [0:0 7:0 32 0] [3 0] 0 0
s 1.152354732 _0_ AGT  --- 7 tcp 592 [0 0 0 0] [energy 0.497814] ------- [0:0 7:0 32 0] [4 0] 0 0
s 1.154939732 _0_ MAC  --- 6 tcp 107 [0 8 0 800] [energy 0.497814] ------- [0:0 7:0 30 8] [3 0] 0 0
s 1.158748157 _8_ MAC  --- 6 ACK 5 [0 0 8 0] [energy 0.497413] 
r 1.159100582 _0_ MAC  --- 6 ACK 5 [0 0 8 0] [energy 0.497724] 
s 1.159383916 _6_ MAC  --- 5 ack 67 [0 8 6 800] [energy 0.497608] ------- [7:0 0:0 29 8] [2 0] 1 0
r 1.159740157 _8_ MAC  --- 6 tcp 100 [0 8 0 800] [energy 0.497362] ------- [0:0 7:0 30 8] [3 0] 1 0
s 1.161912525 _8_ MAC  --- 5 ACK 5 [0 6 8 0] [energy 0.497315] 
r 1.162265134 _6_ MAC  --- 5 ACK 5 [0 6 8 0] [energy 0.497545] 
s 1.162748582 _0_ MAC  --- 7 tcp 107 [0 8 0 800] [energy 0.497665] ------- [0:0 7:0 30 8] [4 0] 0 0
r 1.162904525 _8_ MAC  --- 5 ack 60 [0 8 6 800] [energy 0.497236] ------- [7:0 0:0 29 8] [2 0] 2 0
s 1.166557007 _8_ MAC  --- 7 ACK 5 [0 0 8 0] [energy 0.497161] 
r 1.166909431 _0_ MAC  --- 7 ACK 5 [0 0 8 0] [energy 0.497575] 
s 1.167229007 _8_ MAC  --- 6 tcp 107 [0 6 8 800] [energy 0.497161] ------- [0:0 7:0 29 6] [3 0] 1 0
r 1.167549007 _8_ MAC  --- 7 tcp 100 [0 8 0 800] [energy 0.497082] ------- [0:0 7:0 30 8] [4 0] 1 0
s 1.171037615 _6_ MAC  --- 6 ACK 5 [0 8 6 0] [energy 0.497305] 
r 1.171390224 _8_ MAC  --- 6 ACK 5 [0 8 6 0] [energy 0.497070] 
r 1.172029615 _6_ MAC  --- 6 tcp 100 [0 6 8 800] [energy 0.497305] ------- [0:0 7:0 29 6] [3 0] 2 0
s 1.172350224 _8_ MAC  --- 5 ack 67 [0 0 8 800] [energy 0.497070] ------- [7:0 0:0 28 0] [2 0] 2 0
s 1.174878649 _0_ MAC  --- 5 ACK 5 [0 8 0 0] [energy 0.497390] 
r 1.175231074 _8_ MAC  --- 5 ACK 5 [0 8 0 0] [energy 0.497008] 
r 1.175870649 _0_ MAC  --- 5 ack 60 [0 0 8 800] [energy 0.497390] ------- [7:0 0:0 28 0] [2 0] 3 0
r 1.175895649 _0_ AGT  --- 5 ack 60 [0 0 8 800] [energy 0.497390] ------- [7:0 0:0 28 0] [2 0] 3 0
s 1.175895649 _0_ AGT  --- 8 tcp 592 [0 0 0 0] [energy 0.497390] ------- [0:0 7:0 32 0] [5 0] 0 0
s 1.175895649 _0_ AGT  --- 9 tcp 592 [0 0 0 0] [energy 0.497390] ------- [0:0 7:0 32 0] [6 0] 0 0
s 1.176511074 _8_ MAC  --- 7 tcp 107 [0 6 8 800] [energy 0.497008] ------- [0:0 7:0 29 6] [4 0] 1 0
s 1.180319682 _6_ MAC  --- 7 ACK 5 [0 8 6 0] [energy 0.497092] 
r 1.180672291 _8_ MAC  --- 7 ACK 5 [0 8 6 0] [energy 0.496918] 
r 1.181311682 _6_ MAC  --- 7 tcp 100 [0 6 8 800] [energy 0.497092] ------- [0:0 7:0 29 6] [4 0] 2 0
s 1.182591682 _6_ MAC  --- 6 tcp 107 [0 7 6 800] [energy 0.497092] ------- [0:0 7:0 28 7] [3 0] 2 0
s 1.186400017 _7_ MAC  --- 6 ACK 5 [0 6 7 0] [energy 0.497300] 
r 1.186752352 _6_ MAC  --- 6 ACK 5 [0 6 7 0] [energy 0.497002] 
r 1.187392017 _7_ MAC  --- 6 tcp 100 [0 7 6 800] [energy 0.497300] ------- [0:0 7:0 28 7] [3 0] 3 0
r 1.187417017 _7_ AGT  --- 6 tcp 100 [0 7 6 800] [energy 0.497300] ------- [0:0 7:0 28 7] [3 0] 3 0
s 1.187417017 _7_ AGT  --- 10 ack 40 [0 0 0 0] [energy 0.497300] ------- [7:0 0:0 32 0] [3 0] 0 0
s 1.188032352 _6_ MAC  --- 7 tcp 107 [0 7 6 800] [energy 0.497002] ------- [0:0 7:0 28 7] [4 0] 2 0
s 1.191840687 _7_ MAC  --- 7 ACK 5 [0 6 7 0] [energy 0.497146] 
r 1.192193022 _6_ MAC  --- 7 ACK 5 [0 6 7 0] [energy 0.496911] 
r 1.192832687 _7_ MAC  --- 7 tcp 100 [0 7 6 800] [energy 0.497146] ------- [0:0 7:0 28 7] [4 0] 3 0
r 1.192857687 _7_ AGT  --- 7 tcp 100 [0 7 6 800] [energy 0.497146] ------- [0:0 7:0 28 7] [4 0] 3 0
s 1.192857687 _7_ AGT  --- 11 ack 40 [0 0 0 0] [energy 0.497146] ------- [7:0 0:0 32 0] [4 0] 0 0
s 1.192944649 _0_ MAC  --- 8 tcp 107 [0 8 0 800] [energy 0.497129] ------- [0:0 7:0 30 8] [5 0] 0 0
s 1.196753074 _8_ MAC  --- 8 ACK 5 [0 0 8 0] [energy 0.496590] 
r 1.197105498 _0_ MAC  --- 8 ACK 5 [0 0 8 0] [energy 0.497039] 
s 1.197425498 _0_ MAC  --- 9 tcp 107 [0 8 0 800] [energy 0.497039] ------- [0:0 7:0 30 8] [6 0] 0 0
r 1.197745074 _8_ MAC  --- 8 tcp 100 [0 8 0 800] [energy 0.496511] ------- [0:0 7:0 30 8] [5 0] 1 0
s 1.201233923 _8_ MAC  --- 9 ACK 5 [0 0 8 0] [energy 0.496436] 
r 1.201586348 _0_ MAC  --- 9 ACK 5 [0 0 8 0] [energy 0.496949] 
r 1.202225923 _8_ MAC  --- 9 tcp 100 [0 8 0 800] [energy 0.496436] ------- [0:0 7:0 30 8] [6 0] 1 0
s 1.203185923 _8_ MAC  --- 8 tcp 107 [0 6 8 800] [energy 0.496436] ------- [0:0 7:0 29 6] [5 0] 1 0
s 1.206994530 _6_ MAC  --- 8 ACK 5 [0 8 6 0] [energy 0.496584] 
r 1.207347138 _8_ MAC  --- 8 ACK 5 [0 8 6 0] [energy 0.496346] 
r 1.207986530 _6_ MAC  --- 8 tcp 100 [0 6 8 800] [energy 0.496584] ------- [0:0 7:0 29 6] [5 0] 2 0
s 1.208356530 _6_ MAC  --- 8 tcp 107 [0 7 6 800] [energy 0.496584] ------- [0:0 7:0 28 7] [5 0] 2 0
s 1.212164865 _7_ MAC  --- 8 ACK 5 [0 6 7 0] [energy 0.496732] 
r 1.212517201 _6_ MAC  --- 8 ACK 5 [0 6 7 0] [energy 0.496493] 
r 1.213156865 _7_ MAC  --- 8 tcp 100 [0 7 6 800] [energy 0.496732] ------- [0:0 7:0 28 7] [5 0] 3 0
r 1.213181865 _7_ AGT  --- 8 tcp 100 [0 7 6 800] [energy 0.496732] ------- [0:0 7:0 28 7] [5 0] 3 0
s 1.213181865 _7_ AGT  --- 12 ack 40 [0 0 0 0] [energy 0.496732] ------- [7:0 0:0 32 0] [5 0] 0 0
s 1.214116865 _7_ MAC  --- 10 ack 67 [0 6 7 800] [energy 0.496732] ------- [7:0 0:0 30 6] [3 0] 0 0
s 1.216645201 _6_ MAC  --- 10 ACK 5 [0 7 6 0] [energy 0.496395] 
r 1.216997536 _7_ MAC  --- 10 ACK 5 [0 7 6 0] [energy 0.496670] 
r 1.217637201 _6_ MAC  --- 10 ack 60 [0 6 7 800] [energy 0.496395] ------- [7:0 0:0 30 6] [3 0] 1 0
s 1.218917536 _7_ MAC  --- 11 ack 67 [0 6 7 800] [energy 0.496670] ------- [7:0 0:0 30 6] [4 0] 0 0
s 1.221445871 _6_ MAC  --- 11 ACK 5 [0 7 6 0] [energy 0.496297] 
r 1.221798206 _7_ MAC  --- 11 ACK 5 [0 7 6 0] [energy 0.496607] 
s 1.222118206 _7_ MAC  --- 12 ack 67 [0 6 7 800] [energy 0.496607] ------- [7:0 0:0 30 6] [5 0] 0 0
r 1.222437871 _6_ MAC  --- 11 ack 60 [0 6 7 800] [energy 0.496246] ------- [7:0 0:0 30 6] [4 0] 1 0
s 1.224646541 _6_ MAC  --- 12 ACK 5 [0 7 6 0] [energy 0.496199] 
r 1.224998876 _7_ MAC  --- 12 ACK 5 [0 7 6 0] [energy 0.496545] 
s 1.225318541 _6_ MAC  --- 10 ack 67 [0 8 6 800] [energy 0.496199] ------- [7:0 0:0 29 8] [3 0] 1 0
r 1.225638541 _6_ MAC  --- 12 ack 60 [0 6 7 800] [energy 0.496148] ------- [7:0 0:0 30 6] [5 0] 1 0
s 1.227847147 _8_ MAC  --- 10 ACK 5 [0 6 8 0] [energy 0.495985] 
r 1.228199754 _6_ MAC  --- 10 ACK 5 [0 6 8 0] [energy 0.496137] 
r 1.228839147 _8_ MAC  --- 10 ack 60 [0 8 6 800] [energy 0.495985] ------- [7:0 0:0 29 8] [3 0] 2 0
s 1.230119147 _8_ MAC  --- 9 tcp 107 [0 6 8 800] [energy 0.495985] ------- [0:0 7:0 29 6] [6 0] 1 0
s 1.233927754 _6_ MAC  --- 9 ACK 5 [0 8 6 0] [energy 0.495983] 
r 1.234280360 _8_ MAC  --- 9 ACK 5 [0 8 6 0] [energy 0.495894] 
r 1.234919754 _6_ MAC  --- 9 tcp 100 [0 6 8 800] [energy 0.495983] ------- [0:0 7:0 29 6] [6 0] 2 0
s 1.235880360 _8_ MAC  --- 10 ack 67 [0 0 8 800] [energy 0.495894] ------- [7:0 0:0 28 0] [3 0] 2 0
s 1.238408785 _0_ MAC  --- 10 ACK 5 [0 8 0 0] [energy 0.496355] 
r 1.238761209 _8_ MAC  --- 10 ACK 5 [0 8 0 0] [energy 0.495832] 
r 1.239400785 _0_ MAC  --- 10 ack 60 [0 0 8 800] [energy 0.496355] ------- [7:0 0:0 28 0] [3 0] 3 0
r 1.239425785 _0_ AGT  --- 10 ack 60 [0 0 8 800] [energy 0.496355] ------- [7:0 0:0 28 0] [3 0] 3 0
s 1.239425785 _0_ AGT  --- 13 tcp 592 [0 0 0 0] [energy 0.496355] ------- [0:0 7:0 32 0] [7 0] 0 0
s 1.239425785 _0_ AGT  --- 14 tcp 592 [0 0 0 0] [energy 0.496355] ------- [0:0 7:0 32 0] [8 0] 0 0
s 1.240730785 _0_ MAC  --- 13 tcp 107 [0 8 0 800] [energy 0.496355] ------- [0:0 7:0 30 8] [7 0] 0 0
s 1.244539209 _8_ MAC  --- 13 ACK 5 [0 0 8 0] [energy 0.495678] 
r 1.244891633 _0_ MAC  --- 13 ACK 5 [0 0 8 0] [energy 0.496265] 
r 1.245531209 _8_ MAC  --- 13 tcp 100 [0 8 0 800] [energy 0.495678] ------- [0:0 7:0 30 8] [7 0] 1 0
s 1.245851633 _0_ MAC  --- 14 tcp 107 [0 8 0 800] [energy 0.496265] ------- [0:0 7:0 30 8] [8 0] 0 0
s 1.245901209 _8_ MAC  --- 13 tcp 107 [0 6 8 800] [energy 0.495599] ------- [0:0 7:0 29 6] [7 0] 1 0
D 1.249517815 _6_ MAC  LQI 13 tcp 107 [0 6 8 800] [energy 0.495675] ------- [0:0 7:0 29 6] [7 0] 1 0
s 1.250651633 _0_ MAC  --- 14 tcp 107 [0 8 0 800] [energy 0.496177] ------- [0:0 7:0 30 8] [8 0] 0 0
s 1.254460058 _8_ MAC  --- 14 ACK 5 [0 0 8 0] [energy 0.495436] 
r 1.254812482 _0_ MAC  --- 14 ACK 5 [0 0 8 0] [energy 0.496087] 
s 1.255079754 _6_ MAC  --- 11 ack 67 [0 8 6 800] [energy 0.495588] ------- [7:0 0:0 29 8] [4 0] 1 0
r 1.255452058 _8_ MAC  --- 14 tcp 100 [0 8 0 800] [energy 0.495385] ------- [0:0 7:0 30 8] [8 0] 1 0
s 1.257608360 _8_ MAC  --- 11 ACK 5 [0 6 8 0] [energy 0.495338] 
r 1.257960965 _6_ MAC  --- 11 ACK 5 [0 6 8 0] [energy 0.495526] 
r 1.258600360 _8_ MAC  --- 11 ack 60 [0 8 6 800] [energy 0.495338] ------- [7:0 0:0 29 8] [4 0] 2 0
s 1.258920360 _8_ MAC  --- 13 tcp 107 [0 6 8 800] [energy 0.495338] ------- [0:0 7:0 29 6] [7 0] 1 0
s 1.262728965 _6_ MAC  --- 13 ACK 5 [0 8 6 0] [energy 0.495372] 
r 1.263081571 _8_ MAC  --- 13 ACK 5 [0 8 6 0] [energy 0.495248] 
r 1.263720965 _6_ MAC  --- 13 tcp 100 [0 6 8 800] [energy 0.495372] ------- [0:0 7:0 29 6] [7 0] 2 0
s 1.264041571 _8_ MAC  --- 14 tcp 107 [0 6 8 800] [energy 0.495248] ------- [0:0 7:0 29 6] [8 0] 1 0
s 1.267850176 _6_ MAC  --- 14 ACK 5 [0 8 6 0] [energy 0.495218] 
r 1.268202781 _8_ MAC  --- 14 ACK 5 [0 8 6 0] [energy 0.495158] 
r 1.268842176 _6_ MAC  --- 14 tcp 100 [0 6 8 800] [energy 0.495218] ------- [0:0 7:0 29 6] [8 0] 2 0
s 1.270122781 _8_ MAC  --- 11 ack 67 [0 0 8 800] [energy 0.495158] ------- [7:0 0:0 28 0] [4 0] 2 0
s 1.272651205 _0_ MAC  --- 11 ACK 5 [0 8 0 0] [energy 0.495756] 
r 1.273003629 _8_ MAC  --- 11 ACK 5 [0 8 0 0] [energy 0.495096] 
r 1.273643205 _0_ MAC  --- 11 ack 60 [0 0 8 800] [energy 0.495756] ------- [7:0 0:0 28 0] [4 0] 3 0
r 1.273668205 _0_ AGT  --- 11 ack 60 [0 0 8 800] [energy 0.495756] ------- [7:0 0:0 28 0] [4 0] 3 0
s 1.273668205 _0_ AGT  --- 15 tcp 592 [0 0 0 0] [energy 0.495756] ------- [0:0 7:0 32 0] [9 0] 0 0
s 1.273668205 _0_ AGT  --- 16 tcp 592 [0 0 0 0] [energy 0.495756] ------- [0:0 7:0 32 0] [10 0] 0 0
s 1.275613205 _0_ MAC  --- 15 tcp 107 [0 8 0 800] [energy 0.495756] ------- [0:0 7:0 30 8] [9 0] 0 0
s 1.279421629 _8_ MAC  --- 15 ACK 5 [0 0 8 0] [energy 0.494942] 
r 1.279774053 _0_ MAC  --- 15 ACK 5 [0 0 8 0] [energy 0.495666] 
r 1.280413629 _8_ MAC  --- 15 tcp 100 [0 8 0 800] [energy 0.494942] ------- [0:0 7:0 30 8] [9 0] 1 0
s 1.281694053 _0_ MAC  --- 16 tcp 107 [0 8 0 800] [energy 0.495666] ------- [0:0 7:0 30 8] [10 0] 0 0
s 1.285502477 _8_ MAC  --- 16 ACK 5 [0 0 8 0] [energy 0.494788] 
r 1.285854901 _0_ MAC  --- 16 ACK 5 [0 0 8 0] [energy 0.495576] 
r 1.286494477 _8_ MAC  --- 16 tcp 100 [0 8 0 800] [energy 0.494788] ------- [0:0 7:0 30 8] [10 0] 1 0
s 1.286506176 _6_ MAC  --- 12 ack 67 [0 8 6 800] [energy 0.494985] ------- [7:0 0:0 29 8] [5 0] 1 0
s 1.289034780 _8_ MAC  --- 12 ACK 5 [0 6 8 0] [energy 0.494690] 
r 1.289387385 _6_ MAC  --- 12 ACK 5 [0 6 8 0] [energy 0.494923] 
r 1.290026780 _8_ MAC  --- 12 ack 60 [0 8 6 800] [energy 0.494690] ------- [7:0 0:0 29 8] [5 0] 2 0
s 1.290347385 _6_ MAC  --- 9 tcp 107 [0 7 6 800] [energy 0.494923] ------- [0:0 7:0 28 7] [6 0] 2 0
s 1.294155720 _7_ MAC  --- 9 ACK 5 [0 6 7 0] [energy 0.495402] 
r 1.294508055 _6_ MAC  --- 9 ACK 5 [0 6 7 0] [energy 0.494833] 
s 1.294828055 _6_ MAC  --- 13 tcp 107 [0 7 6 800] [energy 0.494833] ------- [0:0 7:0 28 7] [7 0] 2 0
s 1.294954780 _8_ MAC  --- 15 tcp 107 [0 6 8 800] [energy 0.494524] ------- [0:0 7:0 29 6] [9 0] 1 0